 Entering Gaussian System, Link 0=/home/apl/G16/g16/g16
 Initial command:
 /home/apl/G16/g16/l1.exe "/home/nakano/results/FrontierOrbital/6/Gau-74206.inp" -scrdir="/home/nakano/results/FrontierOrbital/6/"
 Entering Link 1 = /home/apl/G16/g16/l1.exe PID=     74207.
  
 Copyright (c) 1988-2017, Gaussian, Inc.  All Rights Reserved.
  
 This is part of the Gaussian(R) 16 program.  It is based on
 the Gaussian(R) 09 system (copyright 2009, Gaussian, Inc.),
 the Gaussian(R) 03 system (copyright 2003, Gaussian, Inc.),
 the Gaussian(R) 98 system (copyright 1998, Gaussian, Inc.),
 the Gaussian(R) 94 system (copyright 1995, Gaussian, Inc.),
 the Gaussian 92(TM) system (copyright 1992, Gaussian, Inc.),
 the Gaussian 90(TM) system (copyright 1990, Gaussian, Inc.),
 the Gaussian 88(TM) system (copyright 1988, Gaussian, Inc.),
 the Gaussian 86(TM) system (copyright 1986, Carnegie Mellon
 University), and the Gaussian 82(TM) system (copyright 1983,
 Carnegie Mellon University). Gaussian is a federally registered
 trademark of Gaussian, Inc.
  
 This software contains proprietary and confidential information,
 including trade secrets, belonging to Gaussian, Inc.
  
 This software is provided under written license and may be
 used, copied, transmitted, or stored only in accord with that
 written license.
  
 The following legend is applicable only to US Government
 contracts under FAR:
  
                    RESTRICTED RIGHTS LEGEND
  
 Use, reproduction and disclosure by the US Government is
 subject to restrictions as set forth in subparagraphs (a)
 and (c) of the Commercial Computer Software - Restricted
 Rights clause in FAR 52.227-19.
  
 Gaussian, Inc.
 340 Quinnipiac St., Bldg. 40, Wallingford CT 06492
  
  
 ---------------------------------------------------------------
 Warning -- This program may not be used in any manner that
 competes with the business of Gaussian, Inc. or will provide
 assistance to any competitor of Gaussian, Inc.  The licensee
 of this program is prohibited from giving any competitor of
 Gaussian, Inc. access to this program.  By using this program,
 the user acknowledges that Gaussian, Inc. is engaged in the
 business of creating and licensing software in the field of
 computational chemistry and represents and warrants to the
 licensee that it is not a competitor of Gaussian, Inc. and that
 it will not use this program in any manner prohibited above.
 ---------------------------------------------------------------
  

 Cite this work as:
 Gaussian 16, Revision B.01,
 M. J. Frisch, G. W. Trucks, H. B. Schlegel, G. E. Scuseria, 
 M. A. Robb, J. R. Cheeseman, G. Scalmani, V. Barone, 
 G. A. Petersson, H. Nakatsuji, X. Li, M. Caricato, A. V. Marenich, 
 J. Bloino, B. G. Janesko, R. Gomperts, B. Mennucci, H. P. Hratchian, 
 J. V. Ortiz, A. F. Izmaylov, J. L. Sonnenberg, D. Williams-Young, 
 F. Ding, F. Lipparini, F. Egidi, J. Goings, B. Peng, A. Petrone, 
 T. Henderson, D. Ranasinghe, V. G. Zakrzewski, J. Gao, N. Rega, 
 G. Zheng, W. Liang, M. Hada, M. Ehara, K. Toyota, R. Fukuda, 
 J. Hasegawa, M. Ishida, T. Nakajima, Y. Honda, O. Kitao, H. Nakai, 
 T. Vreven, K. Throssell, J. A. Montgomery, Jr., J. E. Peralta, 
 F. Ogliaro, M. J. Bearpark, J. J. Heyd, E. N. Brothers, K. N. Kudin, 
 V. N. Staroverov, T. A. Keith, R. Kobayashi, J. Normand, 
 K. Raghavachari, A. P. Rendell, J. C. Burant, S. S. Iyengar, 
 J. Tomasi, M. Cossi, J. M. Millam, M. Klene, C. Adamo, R. Cammi, 
 J. W. Ochterski, R. L. Martin, K. Morokuma, O. Farkas, 
 J. B. Foresman, and D. J. Fox, Gaussian, Inc., Wallingford CT, 2016.
 
 ******************************************
 Gaussian 16:  ES64L-G16RevB.01 20-Dec-2017
                 4-Oct-2021 
 ******************************************
 ------------------------
 # hf/sto-6g pop=full opt
 ------------------------
 1/18=20,19=15,38=1/1,3;
 2/9=110,12=2,17=6,18=5,40=1/2;
 3/6=6,11=9,25=1,30=1,71=1/1,2,3;
 4//1;
 5/5=2,38=5/2;
 6/7=3,28=1/1;
 7//1,2,3,16;
 1/18=20,19=15/3(2);
 2/9=110/2;
 99//99;
 2/9=110/2;
 3/6=6,11=9,25=1,30=1,71=1/1,2,3;
 4/5=5,16=3,69=1/1;
 5/5=2,38=5/2;
 7//1,2,3,16;
 1/18=20,19=15/3(-5);
 2/9=110/2;
 6/7=3,19=2,28=1/1;
 99/9=1/99;
 -------------------------
 CH2CHOCH3 molecule : Opt.
 -------------------------
 Symbolic Z-matrix:
 Charge =  0 Multiplicity = 1
 C1
 C2                   1     1.35 
 H3                   1     1.1      2     120. 
 H4                   1     1.1      2     120.     3     180.     0
 H5                   2     1.1      1     120.     3     0.       0
 O6                   2     1.45     1     120.     3     180.     0
 C7                   6     1.45     2     110.     1     0.       0
 H8                   7     1.1      6     110.     2     60.      0
 H9                   7     1.1      6     110.     8     120.     0
 H10                  7     1.1      6     110.     8    -120.     0
 

 GradGradGradGradGradGradGradGradGradGradGradGradGradGradGradGradGradGrad
 Berny optimization.
 Initialization pass.
                           ----------------------------
                           !    Initial Parameters    !
                           ! (Angstroms and Degrees)  !
 --------------------------                            --------------------------
 ! Name  Definition              Value          Derivative Info.                !
 --------------------------------------------------------------------------------
 ! R1    R(1,2)                  1.35           estimate D2E/DX2                !
 ! R2    R(1,3)                  1.1            estimate D2E/DX2                !
 ! R3    R(1,4)                  1.1            estimate D2E/DX2                !
 ! R4    R(2,5)                  1.1            estimate D2E/DX2                !
 ! R5    R(2,6)                  1.45           estimate D2E/DX2                !
 ! R6    R(6,7)                  1.45           estimate D2E/DX2                !
 ! R7    R(7,8)                  1.1            estimate D2E/DX2                !
 ! R8    R(7,9)                  1.1            estimate D2E/DX2                !
 ! R9    R(7,10)                 1.1            estimate D2E/DX2                !
 ! A1    A(2,1,3)              120.0            estimate D2E/DX2                !
 ! A2    A(2,1,4)              120.0            estimate D2E/DX2                !
 ! A3    A(3,1,4)              120.0            estimate D2E/DX2                !
 ! A4    A(1,2,5)              120.0            estimate D2E/DX2                !
 ! A5    A(1,2,6)              120.0            estimate D2E/DX2                !
 ! A6    A(5,2,6)              120.0            estimate D2E/DX2                !
 ! A7    A(2,6,7)              110.0            estimate D2E/DX2                !
 ! A8    A(6,7,8)              110.0            estimate D2E/DX2                !
 ! A9    A(6,7,9)              110.0            estimate D2E/DX2                !
 ! A10   A(6,7,10)             110.0            estimate D2E/DX2                !
 ! A11   A(8,7,9)              108.9373         estimate D2E/DX2                !
 ! A12   A(8,7,10)             108.9373         estimate D2E/DX2                !
 ! A13   A(9,7,10)             108.9373         estimate D2E/DX2                !
 ! D1    D(3,1,2,5)              0.0            estimate D2E/DX2                !
 ! D2    D(3,1,2,6)            180.0            estimate D2E/DX2                !
 ! D3    D(4,1,2,5)            180.0            estimate D2E/DX2                !
 ! D4    D(4,1,2,6)              0.0            estimate D2E/DX2                !
 ! D5    D(1,2,6,7)              0.0            estimate D2E/DX2                !
 ! D6    D(5,2,6,7)            180.0            estimate D2E/DX2                !
 ! D7    D(2,6,7,8)             60.0            estimate D2E/DX2                !
 ! D8    D(2,6,7,9)            180.0            estimate D2E/DX2                !
 ! D9    D(2,6,7,10)           -60.0            estimate D2E/DX2                !
 --------------------------------------------------------------------------------
 Trust Radius=3.00D-01 FncErr=1.00D-07 GrdErr=1.00D-07 EigMax=2.50D+02 EigMin=1.00D-04
 Number of steps in this run=     41 maximum allowed number of steps=    100.
 GradGradGradGradGradGradGradGradGradGradGradGradGradGradGradGradGradGrad

                          Input orientation:                          
 ---------------------------------------------------------------------
 Center     Atomic      Atomic             Coordinates (Angstroms)
 Number     Number       Type             X           Y           Z
 ---------------------------------------------------------------------
      1          6           0        0.000000    0.000000    0.000000
      2          6           0        0.000000    0.000000    1.350000
      3          1           0        0.952628    0.000000   -0.550000
      4          1           0       -0.952628    0.000000   -0.550000
      5          1           0        0.952628    0.000000    1.900000
      6          8           0       -1.255737    0.000000    2.075000
      7          6           0       -2.366501    0.000000    1.142958
      8          1           0       -2.322492   -0.895177    0.505212
      9          1           0       -3.319129    0.000000    1.692958
     10          1           0       -2.322492    0.895177    0.505212
 ---------------------------------------------------------------------
                    Distance matrix (angstroms):
                    1          2          3          4          5
     1  C    0.000000
     2  C    1.350000   0.000000
     3  H    1.100000   2.125441   0.000000
     4  H    1.100000   2.125441   1.905256   0.000000
     5  H    2.125441   1.100000   2.450000   3.103627   0.000000
     6  O    2.425387   1.450000   3.430379   2.642442   2.215288
     7  C    2.628057   2.375541   3.725953   2.205707   3.404369
     8  H    2.539793   2.628493   3.555450   1.947137   3.670584
     9  H    3.725953   3.336801   4.824808   3.260550   4.276772
    10  H    2.539793   2.628493   3.555450   1.947137   3.670584
                    6          7          8          9         10
     6  O    0.000000
     7  C    1.450000   0.000000
     8  H    2.098462   1.100000   0.000000
     9  H    2.098462   1.100000   1.790355   0.000000
    10  H    2.098462   1.100000   1.790355   1.790355   0.000000
 Stoichiometry    C3H6O
 Framework group  CS[SG(C3H4O),X(H2)]
 Deg. of freedom    16
 Full point group                 CS      NOp   2
 Largest Abelian subgroup         CS      NOp   2
 Largest concise Abelian subgroup CS      NOp   2
                         Standard orientation:                         
 ---------------------------------------------------------------------
 Center     Atomic      Atomic             Coordinates (Angstroms)
 Number     Number       Type             X           Y           Z
 ---------------------------------------------------------------------
      1          6           0        1.306436    0.669149    0.000000
      2          6           0        0.000000    1.009333    0.000000
      3          1           0        2.078738    1.452443    0.000000
      4          1           0        1.598637   -0.391331    0.000000
      5          1           0       -0.292201    2.069813    0.000000
      6          8           0       -1.018035   -0.023191    0.000000
      7          6           0       -0.395969   -1.332974    0.000000
      8          1           0        0.232288   -1.451089    0.895177
      9          1           0       -1.168271   -2.116268    0.000000
     10          1           0        0.232288   -1.451089   -0.895177
 ---------------------------------------------------------------------
 Rotational constants (GHZ):          16.1974617           6.8690982           4.9769704
 Standard basis: STO-6G (5D, 7F)
 There are    21 symmetry adapted cartesian basis functions of A'  symmetry.
 There are     5 symmetry adapted cartesian basis functions of A"  symmetry.
 There are    21 symmetry adapted basis functions of A'  symmetry.
 There are     5 symmetry adapted basis functions of A"  symmetry.
    26 basis functions,   156 primitive gaussians,    26 cartesian basis functions
    16 alpha electrons       16 beta electrons
       nuclear repulsion energy       120.5072541690 Hartrees.
 NAtoms=   10 NActive=   10 NUniq=    9 SFac= 1.23D+00 NAtFMM=   60 NAOKFM=F Big=F
 Integral buffers will be    131072 words long.
 Raffenetti 1 integral format.
 Two-electron integral symmetry is turned on.
 One-electron integrals computed using PRISM.
 NBasis=    26 RedAO= T EigKep=  2.02D-01  NBF=    21     5
 NBsUse=    26 1.00D-06 EigRej= -1.00D+00 NBFU=    21     5
 ExpMin= 1.00D-01 ExpMax= 1.36D+03 ExpMxC= 2.49D+02 IAcc=3 IRadAn=         5 AccDes= 0.00D+00
 Harris functional with IExCor=  205 and IRadAn=       5 diagonalized for initial guess.
 HarFok:  IExCor=  205 AccDes= 0.00D+00 IRadAn=         5 IDoV= 1 UseB2=F ITyADJ=14
 ICtDFT=  3500011 ScaDFX=  1.000000  1.000000  1.000000  1.000000
 FoFCou: FMM=F IPFlag=           0 FMFlag=      100000 FMFlg1=           0
         NFxFlg=           0 DoJE=T BraDBF=F KetDBF=T FulRan=T
         wScrn=  0.000000 ICntrl=       500 IOpCl=  0 I1Cent=   200000004 NGrid=           0
         NMat0=    1 NMatS0=      1 NMatT0=    0 NMatD0=    1 NMtDS0=    0 NMtDT0=    0
 Petite list used in FoFCou.
 Initial guess orbital symmetries:
       Occupied  (A') (A') (A') (A') (A') (A') (A') (A') (A') (A')
                 (A") (A') (A') (A') (A") (A")
       Virtual   (A") (A') (A') (A') (A') (A") (A') (A') (A') (A')
 The electronic state of the initial guess is 1-A'.
 Keep R1 ints in memory in symmetry-blocked form, NReq=909918.
 Requested convergence on RMS density matrix=1.00D-08 within 128 cycles.
 Requested convergence on MAX density matrix=1.00D-06.
 Requested convergence on             energy=1.00D-06.
 No special actions if energy rises.
 SCF Done:  E(RHF) =  -191.316916206     A.U. after   12 cycles
            NFock= 12  Conv=0.28D-08     -V/T= 2.0016

 **********************************************************************

            Population analysis using the SCF Density.

 **********************************************************************

 Orbital symmetries:
       Occupied  (A') (A') (A') (A') (A') (A') (A') (A') (A') (A")
                 (A') (A') (A') (A") (A') (A")
       Virtual   (A") (A') (A') (A') (A') (A") (A') (A') (A') (A')
 The electronic state is 1-A'.
 Alpha  occ. eigenvalues --  -20.55097 -11.24765 -11.22422 -11.15224  -1.30042
 Alpha  occ. eigenvalues --   -0.96324  -0.89522  -0.71425  -0.63258  -0.58780
 Alpha  occ. eigenvalues --   -0.56536  -0.51450  -0.47688  -0.41867  -0.40474
 Alpha  occ. eigenvalues --   -0.28227
 Alpha virt. eigenvalues --    0.31332   0.49713   0.60185   0.63002   0.64788
 Alpha virt. eigenvalues --    0.67809   0.69405   0.73501   0.90110   0.94952
     Molecular Orbital Coefficients:
                           1         2         3         4         5
                           O         O         O         O         O
     Eigenvalues --   -20.55097 -11.24765 -11.22422 -11.15224  -1.30042
   1 1   C  1S         -0.00002  -0.00020   0.00697   0.99528  -0.02036
   2        2S          0.00014   0.00003  -0.00453   0.02289   0.04801
   3        2PX        -0.00018   0.00019   0.00290  -0.00135  -0.02580
   4        2PY        -0.00030   0.00016  -0.00077   0.00033   0.00030
   5        2PZ         0.00000   0.00000   0.00000   0.00000   0.00000
   6 2   C  1S          0.00029  -0.00209   0.99549  -0.00668  -0.06968
   7        2S         -0.00237  -0.00036   0.02114  -0.00512   0.18043
   8        2PX         0.00161   0.00003   0.00140  -0.00309  -0.05148
   9        2PY         0.00182   0.00049   0.00005   0.00083  -0.07295
  10        2PZ         0.00000   0.00000   0.00000   0.00000   0.00000
  11 3   H  1S          0.00006  -0.00009  -0.00005  -0.00429   0.00435
  12 4   H  1S         -0.00004  -0.00025  -0.00005  -0.00426   0.00805
  13 5   H  1S         -0.00002  -0.00009  -0.00421  -0.00001   0.02022
  14 6   O  1S          0.99676   0.00024   0.00022  -0.00001  -0.20906
  15        2S          0.01487  -0.00268  -0.00251   0.00017   0.79575
  16        2PX         0.00260  -0.00056  -0.00099   0.00010   0.10186
  17        2PY        -0.00043   0.00166  -0.00122  -0.00003  -0.01910
  18        2PZ         0.00000   0.00000   0.00000   0.00000   0.00000
  19 7   C  1S          0.00031   0.99531   0.00224   0.00024  -0.07183
  20        2S         -0.00249   0.02252  -0.00027  -0.00008   0.19239
  21        2PX         0.00097   0.00030  -0.00013  -0.00009  -0.03093
  22        2PY        -0.00213  -0.00043  -0.00053  -0.00026   0.08629
  23        2PZ         0.00000   0.00000   0.00000   0.00000   0.00000
  24 8   H  1S          0.00013  -0.00431  -0.00012  -0.00004   0.02321
  25 9   H  1S          0.00010  -0.00432  -0.00011  -0.00007   0.02129
  26 10  H  1S          0.00013  -0.00431  -0.00012  -0.00004   0.02321
                           6         7         8         9        10
                           O         O         O         O         O
     Eigenvalues --    -0.96324  -0.89522  -0.71425  -0.63258  -0.58780
   1 1   C  1S         -0.16991  -0.05926   0.10802   0.03128   0.00000
   2        2S          0.47122   0.16818  -0.34837  -0.10795   0.00000
   3        2PX        -0.10728   0.00204  -0.17513  -0.13576   0.00000
   4        2PY         0.03081  -0.02479   0.09576  -0.26201   0.00000
   5        2PZ         0.00000   0.00000   0.00000   0.00000   0.07151
   6 2   C  1S         -0.15384   0.02395  -0.12322  -0.01582   0.00000
   7        2S          0.44620  -0.09033   0.41105   0.07024   0.00000
   8        2PX         0.15101   0.13173  -0.11298  -0.06789   0.00000
   9        2PY         0.00223   0.01691   0.18750  -0.26928   0.00000
  10        2PZ         0.00000   0.00000   0.00000   0.00000   0.14062
  11 3   H  1S          0.11871   0.04933  -0.17868  -0.25232   0.00000
  12 4   H  1S          0.11601   0.08474  -0.22890   0.14098   0.00000
  13 5   H  1S          0.11366  -0.03208   0.30128  -0.14235   0.00000
  14 6   O  1S          0.04504   0.06990   0.04300   0.03157   0.00000
  15        2S         -0.19298  -0.31211  -0.20176  -0.16185   0.00000
  16        2PX         0.05125   0.03156   0.06240   0.26830   0.00000
  17        2PY         0.10749  -0.17184   0.14331   0.18321   0.00000
  18        2PZ         0.00000   0.00000   0.00000   0.00000   0.39979
  19 7   C  1S          0.05524  -0.18345  -0.04723   0.00958   0.00000
  20        2S         -0.17447   0.56931   0.14630  -0.04169   0.00000
  21        2PX         0.04235   0.05613   0.05398   0.33554   0.00000
  22        2PY        -0.01974  -0.07823  -0.15165   0.08016   0.00000
  23        2PZ         0.00000   0.00000   0.00000   0.00000   0.51475
  24 8   H  1S         -0.02870   0.18809   0.07868   0.13079   0.33740
  25 9   H  1S         -0.05004   0.17461   0.10445  -0.22188   0.00000
  26 10  H  1S         -0.02870   0.18809   0.07868   0.13079  -0.33740
                          11        12        13        14        15
                           O         O         O         O         O
     Eigenvalues --    -0.56536  -0.51450  -0.47688  -0.41867  -0.40474
   1 1   C  1S         -0.00653  -0.02137  -0.00502   0.00000   0.01660
   2        2S          0.04940   0.07664   0.01315   0.00000  -0.05388
   3        2PX         0.38791  -0.13897   0.02259   0.00000   0.24683
   4        2PY        -0.10255  -0.23152   0.40476   0.00000  -0.05465
   5        2PZ         0.00000   0.00000   0.00000   0.24618   0.00000
   6 2   C  1S          0.02839  -0.02005   0.00055   0.00000  -0.01736
   7        2S         -0.06847   0.08179   0.02096   0.00000   0.10170
   8        2PX        -0.38617   0.00439   0.00037   0.00000  -0.28070
   9        2PY         0.13764  -0.21365  -0.33186   0.00000  -0.09022
  10        2PZ         0.00000   0.00000   0.00000   0.42142   0.00000
  11 3   H  1S          0.18862  -0.20483   0.30415   0.00000   0.13045
  12 4   H  1S          0.22210   0.15118  -0.36666   0.00000   0.04544
  13 5   H  1S          0.14840  -0.16327  -0.32719   0.00000   0.08872
  14 6   O  1S         -0.02158  -0.00455  -0.00127   0.00000   0.06612
  15        2S          0.11162   0.02613   0.00525   0.00000  -0.37048
  16        2PX        -0.14523  -0.10527   0.15062   0.00000   0.69476
  17        2PY         0.33658   0.25378   0.31024   0.00000  -0.10196
  18        2PZ         0.00000   0.00000   0.00000   0.66752   0.00000
  19 7   C  1S          0.00412   0.01704  -0.00523   0.00000  -0.01902
  20        2S         -0.04044  -0.08661   0.00140   0.00000   0.09172
  21        2PX         0.17455  -0.30488   0.12909   0.00000  -0.25662
  22        2PY        -0.21187  -0.37971  -0.18944   0.00000   0.14743
  23        2PZ         0.00000   0.00000   0.00000  -0.25732   0.00000
  24 8   H  1S          0.10859  -0.13353   0.06559  -0.25946  -0.16328
  25 9   H  1S          0.01031   0.42015   0.05419   0.00000   0.16606
  26 10  H  1S          0.10859  -0.13353   0.06559   0.25946  -0.16328
                          16        17        18        19        20
                           O         V         V         V         V
     Eigenvalues --    -0.28227   0.31332   0.49713   0.60185   0.63002
   1 1   C  1S          0.00000   0.00000  -0.01442   0.00591  -0.00186
   2        2S          0.00000   0.00000   0.04652  -0.02975   0.02228
   3        2PX         0.00000   0.00000   0.01883   0.06032   0.32077
   4        2PY         0.00000   0.00000   0.17488   0.53945   0.17462
   5        2PZ         0.61947  -0.78009   0.00000   0.00000   0.00000
   6 2   C  1S          0.00000   0.00000   0.10956  -0.00968  -0.11080
   7        2S          0.00000   0.00000  -0.60933   0.11794   0.72517
   8        2PX         0.00000   0.00000   0.48449   0.06636  -0.16403
   9        2PY         0.00000   0.00000   0.27304   0.62583   0.24242
  10        2PZ         0.44878   0.82133   0.00000   0.00000   0.00000
  11 3   H  1S          0.00000   0.00000  -0.23767  -0.42525  -0.33797
  12 4   H  1S          0.00000   0.00000   0.20623   0.51496   0.11779
  13 5   H  1S          0.00000   0.00000   0.29828  -0.62222  -0.64891
  14 6   O  1S          0.00000   0.00000  -0.10902   0.01008  -0.01534
  15        2S          0.00000   0.00000   0.70755  -0.06695   0.11027
  16        2PX         0.00000   0.00000   0.63175   0.09785   0.12515
  17        2PY         0.00000   0.00000  -0.02036   0.54718  -0.51422
  18        2PZ        -0.58201  -0.24568   0.00000   0.00000   0.00000
  19 7   C  1S          0.00000   0.00000   0.06184  -0.01340   0.02571
  20        2S          0.00000   0.00000  -0.31555   0.01393  -0.10851
  21        2PX         0.00000   0.00000   0.39053  -0.22096  -0.31475
  22        2PY         0.00000   0.00000  -0.46395   0.54315  -0.70363
  23        2PZ         0.00285  -0.00869   0.00000   0.00000   0.00000
  24 8   H  1S          0.10512   0.04176  -0.09699   0.10126   0.19235
  25 9   H  1S          0.00000   0.00000   0.19777   0.19500  -0.62920
  26 10  H  1S         -0.10512  -0.04176  -0.09699   0.10126   0.19235
                          21        22        23        24        25
                           V         V         V         V         V
     Eigenvalues --     0.64788   0.67809   0.69405   0.73501   0.90110
   1 1   C  1S         -0.16470   0.00000   0.05013   0.08379  -0.00518
   2        2S          1.11323   0.00000  -0.32401  -0.60028   0.03999
   3        2PX         0.34521   0.00000   0.09321  -0.34514   0.15546
   4        2PY        -0.11372   0.00000  -0.00586   0.01424   0.99227
   5        2PZ         0.00000   0.02451   0.00000   0.00000   0.00000
   6 2   C  1S          0.04466   0.00000  -0.09666   0.01949   0.02059
   7        2S         -0.25383   0.00000   0.63905  -0.13752  -0.21633
   8        2PX        -0.12138   0.00000  -0.10046   0.18951  -0.23090
   9        2PY         0.12700   0.00000   0.21112   0.06331  -0.79934
  10        2PZ         0.00000   0.03804   0.00000   0.00000   0.00000
  11 3   H  1S         -0.72982   0.00000   0.11203   0.47373  -0.63207
  12 4   H  1S         -0.71717   0.00000   0.17982   0.48893   0.68775
  13 5   H  1S          0.02084   0.00000  -0.53494   0.05420   0.57924
  14 6   O  1S          0.00987   0.00000   0.00563   0.00457   0.03285
  15        2S         -0.06245   0.00000  -0.02677  -0.02210  -0.23541
  16        2PX        -0.00946   0.00000  -0.16569   0.04786  -0.24722
  17        2PY         0.24741   0.00000  -0.31020   0.33932  -0.19309
  18        2PZ         0.00000  -0.17080   0.00000   0.00000   0.00000
  19 7   C  1S         -0.12718   0.00000  -0.04837  -0.16785  -0.02121
  20        2S          0.82002   0.00000   0.36217   1.14518   0.16014
  21        2PX         0.11242   0.00000   0.90335  -0.22867   0.08657
  22        2PY        -0.03113   0.00000   0.05301  -0.35350  -0.03077
  23        2PZ         0.00000   1.10075   0.00000   0.00000   0.00000
  24 8   H  1S         -0.36278  -0.84857  -0.62896  -0.45482  -0.15634
  25 9   H  1S         -0.33023   0.00000   0.49154  -0.84321  -0.02795
  26 10  H  1S         -0.36278   0.84857  -0.62896  -0.45482  -0.15634
                          26
                           V
     Eigenvalues --     0.94952
   1 1   C  1S          0.10085
   2        2S         -0.82904
   3        2PX         1.09378
   4        2PY        -0.22602
   5        2PZ         0.00000
   6 2   C  1S         -0.09634
   7        2S          0.81366
   8        2PX         1.07010
   9        2PY        -0.36772
  10        2PZ         0.00000
  11 3   H  1S         -0.14283
  12 4   H  1S         -0.07689
  13 5   H  1S          0.17567
  14 6   O  1S          0.00550
  15        2S         -0.03156
  16        2PX        -0.10572
  17        2PY         0.20652
  18        2PZ         0.00000
  19 7   C  1S         -0.01472
  20        2S          0.08245
  21        2PX        -0.06767
  22        2PY         0.10006
  23        2PZ         0.00000
  24 8   H  1S          0.01738
  25 9   H  1S         -0.02234
  26 10  H  1S          0.01738
     Density Matrix:
                           1         2         3         4         5
   1 1   C  1S          2.07373
   2        2S         -0.22437   0.79518
   3        2PX        -0.00288   0.03936   0.58503
   4        2PY         0.00277  -0.01849   0.00696   0.62064
   5        2PZ         0.00000   0.00000   0.00000   0.00000   0.89891
   6 2   C  1S          0.02515  -0.06206   0.10899  -0.02175   0.00000
   7        2S         -0.06440   0.10085  -0.29303   0.05598   0.00000
   8        2PX        -0.10409   0.26769  -0.41055   0.12483   0.00000
   9        2PY         0.03320  -0.08984   0.11742  -0.01181   0.00000
  10        2PZ         0.00000   0.00000   0.00000   0.00000   0.78360
  11 3   H  1S         -0.10172   0.28884   0.38701   0.39098   0.00000
  12 4   H  1S         -0.10308   0.29803   0.15310  -0.53210   0.00000
  13 5   H  1S          0.03174  -0.10940   0.09706  -0.08849   0.00000
  14 6   O  1S         -0.00118  -0.00060  -0.00548  -0.01145   0.00000
  15        2S          0.00183   0.02020   0.01034   0.05998   0.00000
  16        2PX         0.03309  -0.13408   0.15553  -0.00247   0.00000
  17        2PY         0.00522  -0.00643   0.03155   0.02232   0.00000
  18        2PZ         0.00000   0.00000   0.00000   0.00000  -0.33524
  19 7   C  1S         -0.00496   0.01927  -0.00573  -0.01219   0.00000
  20        2S          0.02007  -0.07451   0.02795   0.05052   0.00000
  21        2PX         0.01362  -0.05268  -0.01797   0.07224   0.00000
  22        2PY         0.00997  -0.04828   0.03619  -0.01854   0.00000
  23        2PZ         0.00000   0.00000   0.00000   0.00000  -0.04954
  24 8   H  1S          0.00983  -0.03503  -0.01363   0.04596   0.05074
  25 9   H  1S         -0.00912   0.03770   0.00966  -0.04639   0.00000
  26 10  H  1S          0.00983  -0.03503  -0.01363   0.04596  -0.05074
                           6         7         8         9        10
   6 2   C  1S          2.07416
   7        2S         -0.23880   0.87268
   8        2PX        -0.01250  -0.01343   0.57627
   9        2PY        -0.00816   0.00285  -0.05094   0.59230
  10        2PZ         0.00000   0.00000   0.00000   0.00000   0.79753
  11 3   H  1S          0.03192  -0.10374  -0.09742  -0.01553   0.00000
  12 4   H  1S          0.02372  -0.08902  -0.10685   0.07214   0.00000
  13 5   H  1S         -0.10593   0.29932  -0.19106   0.49789   0.00000
  14 6   O  1S          0.00470   0.00280   0.02225   0.02073   0.00000
  15        2S          0.00155  -0.10361  -0.03283  -0.03303   0.00000
  16        2PX        -0.08226   0.31602  -0.31590  -0.35499   0.00000
  17        2PY        -0.06938   0.25127  -0.26836  -0.25078   0.00000
  18        2PZ         0.00000   0.00000   0.00000   0.00000   0.15266
  19 7   C  1S         -0.00394   0.01654  -0.00717  -0.01662   0.00000
  20        2S          0.01676  -0.06463   0.02906   0.07613   0.00000
  21        2PX         0.00097  -0.01257  -0.02032  -0.01492   0.00000
  22        2PY         0.02196  -0.09682   0.06532   0.08769   0.00000
  23        2PZ         0.00000   0.00000   0.00000   0.00000  -0.06955
  24 8   H  1S          0.00812  -0.03533   0.00963   0.03479  -0.02944
  25 9   H  1S         -0.02010   0.08955  -0.06224  -0.08138   0.00000
  26 10  H  1S          0.00812  -0.03533   0.00963   0.03479   0.02944
                          11        12        13        14        15
  11 3   H  1S          0.59842
  12 4   H  1S         -0.14267   0.60335
  13 5   H  1S         -0.06484   0.10774   0.57802
  14 6   O  1S         -0.00519   0.00404   0.02183   2.10371
  15        2S          0.02203  -0.01816  -0.11172  -0.44572   1.97087
  16        2PX         0.11970  -0.07769  -0.00906   0.09263  -0.54044
  17        2PY         0.04986  -0.02897  -0.13520  -0.01442   0.08544
  18        2PZ         0.00000   0.00000   0.00000   0.00000   0.00000
  19 7   C  1S         -0.00731   0.01347  -0.01426   0.00416   0.00534
  20        2S          0.03017  -0.05647   0.06326   0.00308  -0.10908
  21        2PX         0.02902  -0.04390  -0.03688   0.01334  -0.01645
  22        2PY         0.00094   0.01899   0.10106  -0.02844   0.05060
  23        2PZ         0.00000   0.00000   0.00000   0.00000   0.00000
  24 8   H  1S          0.01079  -0.02862  -0.00354   0.00406  -0.00451
  25 9   H  1S         -0.01176   0.01492  -0.03573   0.02373  -0.12430
  26 10  H  1S          0.01079  -0.02862  -0.00354   0.00406  -0.00451
                          16        17        18        19        20
  16        2PX         1.25488
  17        2PY        -0.08694   0.75978
  18        2PZ         0.00000   0.00000   1.88830
  19 7   C  1S         -0.05520   0.08300   0.00000   2.07108
  20        2S          0.21094  -0.30280   0.00000  -0.23238   0.86554
  21        2PX        -0.11582   0.22460   0.00000  -0.01008   0.01704
  22        2PY         0.32397  -0.47770   0.00000   0.01082   0.00938
  23        2PZ         0.00000   0.00000   0.06474   0.00000   0.00000
  24 8   H  1S         -0.11688   0.07808  -0.19896  -0.08716   0.22961
  25 9   H  1S          0.05982   0.09699   0.00000  -0.08784   0.23033
  26 10  H  1S         -0.11688   0.07808   0.19896  -0.08716   0.22961
                          21        22        23        24        25
  21        2PX         0.65468
  22        2PY         0.05461   0.58015
  23        2PZ         0.00000   0.00000   0.66237
  24 8   H  1S          0.33357  -0.04479   0.48148   0.62569
  25 9   H  1S         -0.44740  -0.38392   0.00000  -0.12910   0.60149
  26 10  H  1S          0.33357  -0.04479  -0.48148  -0.14314  -0.12910
                          26
  26 10  H  1S          0.62569
    Full Mulliken population analysis:
                           1         2         3         4         5
   1 1   C  1S          2.07373
   2        2S         -0.05457   0.79518
   3        2PX         0.00000   0.00000   0.58503
   4        2PY         0.00000   0.00000   0.00000   0.62064
   5        2PZ         0.00000   0.00000   0.00000   0.00000   0.89891
   6 2   C  1S          0.00000  -0.00268  -0.00773  -0.00040   0.00000
   7        2S         -0.00279   0.03956   0.11444   0.00569   0.00000
   8        2PX        -0.00738   0.10454   0.12169   0.01720   0.00000
   9        2PY        -0.00061   0.00914   0.01618  -0.00232   0.00000
  10        2PZ         0.00000   0.00000   0.00000   0.00000   0.18230
  11 3   H  1S         -0.00642   0.14027   0.12604   0.12914   0.00000
  12 4   H  1S         -0.00650   0.14473   0.01886   0.23795   0.00000
  13 5   H  1S          0.00019  -0.01164  -0.00941  -0.00752   0.00000
  14 6   O  1S          0.00000   0.00000   0.00001   0.00001   0.00000
  15        2S          0.00000   0.00070  -0.00052  -0.00090   0.00000
  16        2PX         0.00003  -0.00533  -0.00864   0.00005   0.00000
  17        2PY         0.00000  -0.00008  -0.00063   0.00012   0.00000
  18        2PZ         0.00000   0.00000   0.00000   0.00000  -0.00378
  19 7   C  1S          0.00000   0.00003   0.00001   0.00002   0.00000
  20        2S          0.00003  -0.00333  -0.00111  -0.00235   0.00000
  21        2PX         0.00002  -0.00208   0.00044  -0.00343   0.00000
  22        2PY         0.00002  -0.00225  -0.00172   0.00075   0.00000
  23        2PZ         0.00000   0.00000   0.00000   0.00000  -0.00078
  24 8   H  1S          0.00002  -0.00178   0.00037  -0.00247   0.00115
  25 9   H  1S          0.00000   0.00018  -0.00004   0.00023   0.00000
  26 10  H  1S          0.00002  -0.00178   0.00037  -0.00247   0.00115
                           6         7         8         9        10
   6 2   C  1S          2.07416
   7        2S         -0.05808   0.87268
   8        2PX         0.00000   0.00000   0.57627
   9        2PY         0.00000   0.00000   0.00000   0.59230
  10        2PZ         0.00000   0.00000   0.00000   0.00000   0.79753
  11 3   H  1S          0.00019  -0.01104  -0.01228  -0.00042   0.00000
  12 4   H  1S          0.00014  -0.00947  -0.01036  -0.00613   0.00000
  13 5   H  1S         -0.00668   0.14536   0.02354   0.22265   0.00000
  14 6   O  1S          0.00000   0.00006  -0.00057  -0.00054   0.00000
  15        2S          0.00003  -0.02592   0.00750   0.00765   0.00000
  16        2PX        -0.00165   0.05382   0.02376   0.07247   0.00000
  17        2PY        -0.00141   0.04340   0.05479   0.02031   0.00000
  18        2PZ         0.00000   0.00000   0.00000   0.00000   0.01925
  19 7   C  1S          0.00000   0.00005   0.00001   0.00008   0.00000
  20        2S          0.00005  -0.00473  -0.00047  -0.00727   0.00000
  21        2PX         0.00000  -0.00020  -0.00048   0.00037   0.00000
  22        2PY         0.00011  -0.00924  -0.00162  -0.01041   0.00000
  23        2PZ         0.00000   0.00000   0.00000   0.00000  -0.00195
  24 8   H  1S          0.00001  -0.00153   0.00005  -0.00179  -0.00055
  25 9   H  1S         -0.00001   0.00097   0.00032   0.00112   0.00000
  26 10  H  1S          0.00001  -0.00153   0.00005  -0.00179  -0.00055
                          11        12        13        14        15
  11 3   H  1S          0.59842
  12 4   H  1S         -0.01988   0.60335
  13 5   H  1S         -0.00369   0.00194   0.57802
  14 6   O  1S          0.00000   0.00000   0.00006   2.10371
  15        2S          0.00008  -0.00039  -0.00578  -0.10303   1.97087
  16        2PX         0.00048  -0.00181  -0.00016   0.00000   0.00000
  17        2PY         0.00010   0.00010  -0.00709   0.00000   0.00000
  18        2PZ         0.00000   0.00000   0.00000   0.00000   0.00000
  19 7   C  1S          0.00000   0.00007   0.00000   0.00000   0.00009
  20        2S          0.00015  -0.00523   0.00060   0.00007  -0.02729
  21        2PX         0.00013  -0.00450  -0.00001  -0.00021   0.00230
  22        2PY         0.00000   0.00092   0.00130  -0.00094   0.01487
  23        2PZ         0.00000   0.00000   0.00000   0.00000   0.00000
  24 8   H  1S          0.00008  -0.00373  -0.00002   0.00002  -0.00030
  25 9   H  1S         -0.00001   0.00020  -0.00007   0.00009  -0.00813
  26 10  H  1S          0.00008  -0.00373  -0.00002   0.00002  -0.00030
                          16        17        18        19        20
  16        2PX         1.25488
  17        2PY         0.00000   0.75978
  18        2PZ         0.00000   0.00000   1.88830
  19 7   C  1S         -0.00067  -0.00214   0.00000   2.07108
  20        2S          0.02195   0.06635   0.00000  -0.05652   0.86554
  21        2PX        -0.00590   0.03554   0.00000   0.00000   0.00000
  22        2PY         0.05127   0.09894   0.00000   0.00000   0.00000
  23        2PZ         0.00000   0.00000   0.00816   0.00000   0.00000
  24 8   H  1S         -0.00484  -0.00369  -0.00590  -0.00550   0.11150
  25 9   H  1S         -0.00030  -0.00672   0.00000  -0.00554   0.11185
  26 10  H  1S         -0.00484  -0.00369  -0.00590  -0.00550   0.11150
                          21        22        23        24        25
  21        2PX         0.65468
  22        2PY         0.00000   0.58015
  23        2PZ         0.00000   0.00000   0.66237
  24 8   H  1S          0.08837   0.00223   0.18175   0.62569
  25 9   H  1S          0.14570   0.12681   0.00000  -0.02152   0.60149
  26 10  H  1S          0.08837   0.00223   0.18175  -0.02386  -0.02152
                          26
  26 10  H  1S          0.62569
     Gross orbital populations:
                           1
   1 1   C  1S          1.99579
   2        2S          1.14880
   3        2PX         0.95364
   4        2PY         0.98993
   5        2PZ         1.07895
   6 2   C  1S          1.99606
   7        2S          1.15150
   8        2PX         0.89653
   9        2PY         0.91098
  10        2PZ         0.99603
  11 3   H  1S          0.94143
  12 4   H  1S          0.93652
  13 5   H  1S          0.92155
  14 6   O  1S          1.99877
  15        2S          1.83152
  16        2PX         1.44457
  17        2PY         1.05396
  18        2PZ         1.90013
  19 7   C  1S          1.99556
  20        2S          1.18129
  21        2PX         0.99911
  22        2PY         0.85340
  23        2PZ         1.03130
  24 8   H  1S          0.93377
  25 9   H  1S          0.92513
  26 10  H  1S          0.93377
          Condensed to atoms (all electrons):
               1          2          3          4          5          6
     1  C    4.864347   0.586803   0.389029   0.395042  -0.028375  -0.018958
     2  C    0.586803   4.796785  -0.023546  -0.025815   0.384867   0.272945
     3  H    0.389029  -0.023546   0.598419  -0.019883  -0.003692   0.000658
     4  H    0.395042  -0.025815  -0.019883   0.603351   0.001937  -0.002102
     5  H   -0.028375   0.384867  -0.003692   0.001937   0.578017  -0.012974
     6  O   -0.018958   0.272945   0.000658  -0.002102  -0.012974   7.771476
     7  C   -0.015729  -0.035725   0.000281  -0.008743   0.001879   0.262379
     8  H   -0.002709  -0.003808   0.000084  -0.003734  -0.000022  -0.014707
     9  H    0.000373   0.002404  -0.000007   0.000201  -0.000066  -0.015057
    10  H   -0.002709  -0.003808   0.000084  -0.003734  -0.000022  -0.014707
               7          8          9         10
     1  C   -0.015729  -0.002709   0.000373  -0.002709
     2  C   -0.035725  -0.003808   0.002404  -0.003808
     3  H    0.000281   0.000084  -0.000007   0.000084
     4  H   -0.008743  -0.003734   0.000201  -0.003734
     5  H    0.001879  -0.000022  -0.000066  -0.000022
     6  O    0.262379  -0.014707  -0.015057  -0.014707
     7  C    4.720786   0.378355   0.378826   0.378355
     8  H    0.378355   0.625687  -0.021517  -0.023858
     9  H    0.378826  -0.021517   0.601490  -0.021517
    10  H    0.378355  -0.023858  -0.021517   0.625687
 Mulliken charges:
               1
     1  C   -0.167114
     2  C    0.048898
     3  H    0.058573
     4  H    0.063479
     5  H    0.078451
     6  O   -0.228952
     7  C   -0.060663
     8  H    0.066229
     9  H    0.074871
    10  H    0.066229
 Sum of Mulliken charges =   0.00000
 Mulliken charges with hydrogens summed into heavy atoms:
               1
     1  C   -0.045063
     2  C    0.127349
     6  O   -0.228952
     7  C    0.146665
 Electronic spatial extent (au):  <R**2>=            280.7268
 Charge=              0.0000 electrons
 Dipole moment (field-independent basis, Debye):
    X=              0.9627    Y=             -0.4372    Z=              0.0000  Tot=              1.0573
 Quadrupole moment (field-independent basis, Debye-Ang):
   XX=            -25.1101   YY=            -20.0226   ZZ=            -24.0347
   XY=              0.1806   XZ=              0.0000   YZ=              0.0000
 Traceless Quadrupole moment (field-independent basis, Debye-Ang):
   XX=             -2.0543   YY=              3.0332   ZZ=             -0.9789
   XY=              0.1806   XZ=              0.0000   YZ=              0.0000
 Octapole moment (field-independent basis, Debye-Ang**2):
  XXX=             -2.8581  YYY=              1.6214  ZZZ=              0.0000  XYY=             -3.0621
  XXY=             -0.6135  XXZ=              0.0000  XZZ=             -2.0758  YZZ=             -1.0185
  YYZ=              0.0000  XYZ=              0.0000
 Hexadecapole moment (field-independent basis, Debye-Ang**3):
 XXXX=           -139.4517 YYYY=           -166.8430 ZZZZ=            -25.0454 XXXY=            -25.0307
 XXXZ=              0.0000 YYYX=            -25.4327 YYYZ=              0.0000 ZZZX=              0.0000
 ZZZY=              0.0000 XXYY=            -47.4694 XXZZ=            -28.4571 YYZZ=            -34.8956
 XXYZ=              0.0000 YYXZ=              0.0000 ZZXY=            -10.8760
 N-N= 1.205072541690D+02 E-N=-6.908064656372D+02  KE= 1.910201540240D+02
 Symmetry A'   KE= 1.815930177562D+02
 Symmetry A"   KE= 9.427136267859D+00
 Orbital energies and kinetic energies (alpha):
                                 1                 2
   1         O               -20.550972         29.111185
   2         O               -11.247653         15.896997
   3         O               -11.224221         15.904616
   4         O               -11.152238         15.895964
   5         O                -1.300419          2.440609
   6         O                -0.963236          1.623249
   7         O                -0.895216          1.478047
   8         O                -0.714255          1.364666
   9         O                -0.632576          1.108856
  10         O                -0.587802          1.168997
  11         O                -0.565362          1.338002
  12         O                -0.514496          1.220405
  13         O                -0.476883          1.276638
  14         O                -0.418674          1.768878
  15         O                -0.404737          2.137275
  16         O                -0.282275          1.775693
  17         V                 0.313318          1.924108
  18         V                 0.497131          3.262736
  19         V                 0.601854          2.417654
  20         V                 0.630022          2.596618
  21         V                 0.647878          2.763603
  22         V                 0.678086          2.196349
  23         V                 0.694049          2.520173
  24         V                 0.735011          2.817123
  25         V                 0.901098          2.785341
  26         V                 0.949520          3.442340
 Total kinetic energy from orbitals= 1.910201540240D+02
 Calling FoFJK, ICntrl=      2127 FMM=F ISym2X=1 I1Cent= 0 IOpClX= 0 NMat=1 NMatS=1 NMatT=0.
 ***** Axes restored to original set *****
 -------------------------------------------------------------------
 Center     Atomic                   Forces (Hartrees/Bohr)
 Number     Number              X              Y              Z
 -------------------------------------------------------------------
      1        6           0.011130888    0.000000000    0.033720517
      2        6          -0.040364451    0.000000000   -0.057394635
      3        1          -0.021426153    0.000000000    0.008060106
      4        1           0.036198410    0.000000000    0.002284794
      5        1          -0.022032450    0.000000000    0.007119428
      6        8           0.032320699    0.000000000   -0.011633309
      7        6           0.004189621    0.000000000    0.004457757
      8        1          -0.006944688    0.008525023    0.005984785
      9        1           0.013872812    0.000000000    0.001415772
     10        1          -0.006944688   -0.008525023    0.005984785
 -------------------------------------------------------------------
 Cartesian Forces:  Max     0.057394635 RMS     0.018516118

 GradGradGradGradGradGradGradGradGradGradGradGradGradGradGradGradGradGrad
 Berny optimization.
 FormGI is forming the generalized inverse of G from B-inverse, IUseBI=4.
 Internal  Forces:  Max     0.073127006 RMS     0.024749032
 Search for a local minimum.
 Step number   1 out of a maximum of   41
 All quantities printed in internal units (Hartrees-Bohrs-Radians)
 Mixed Optimization -- RFO/linear search
 Second derivative matrix not updated -- first step.
 ITU=  0
     Eigenvalues ---    0.01030   0.01030   0.02177   0.02750   0.02750
     Eigenvalues ---    0.10145   0.10145   0.16000   0.16000   0.16000
     Eigenvalues ---    0.16000   0.16000   0.16000   0.22000   0.25000
     Eigenvalues ---    0.33682   0.33682   0.33682   0.33682   0.33682
     Eigenvalues ---    0.33682   0.38245   0.38245   0.55021
 RFO step:  Lambda=-6.10389994D-02 EMin= 1.03037624D-02
 Linear search not attempted -- first point.
 Maximum step size (   0.300) exceeded in Quadratic search.
    -- Step size scaled by   0.662
 Iteration  1 RMS(Cart)=  0.25475450 RMS(Int)=  0.01678663
 Iteration  2 RMS(Cart)=  0.01992509 RMS(Int)=  0.00033270
 Iteration  3 RMS(Cart)=  0.00006969 RMS(Int)=  0.00032842
 Iteration  4 RMS(Cart)=  0.00000001 RMS(Int)=  0.00032842
 ClnCor:  largest displacement from symmetrization is 5.18D-09 for atom    10.
 Variable       Old X    -DE/DX   Delta X   Delta X   Delta X     New X
                                 (Linear)    (Quad)   (Total)
    R1        2.55113  -0.04407   0.00000  -0.04769  -0.04769   2.50344
    R2        2.07870  -0.02259   0.00000  -0.03755  -0.03755   2.04114
    R3        2.07870  -0.03249   0.00000  -0.05402  -0.05402   2.02467
    R4        2.07870  -0.01552   0.00000  -0.02581  -0.02581   2.05289
    R5        2.74010  -0.02850   0.00000  -0.04251  -0.04251   2.69759
    R6        2.74010  -0.01467   0.00000  -0.02188  -0.02188   2.71823
    R7        2.07870  -0.01069   0.00000  -0.01777  -0.01777   2.06093
    R8        2.07870  -0.01131   0.00000  -0.01880  -0.01880   2.05990
    R9        2.07870  -0.01069   0.00000  -0.01777  -0.01777   2.06093
    A1        2.09440  -0.00600   0.00000  -0.01795  -0.01795   2.07645
    A2        2.09440   0.01975   0.00000   0.05912   0.05912   2.15351
    A3        2.09440  -0.01376   0.00000  -0.04117  -0.04117   2.05322
    A4        2.09440  -0.01871   0.00000  -0.03262  -0.03262   2.06177
    A5        2.09440   0.07313   0.00000   0.17213   0.17213   2.26653
    A6        2.09440  -0.05442   0.00000  -0.13951  -0.13951   1.95488
    A7        1.91986   0.06281   0.00000   0.13360   0.13360   2.05346
    A8        1.91986   0.01050   0.00000   0.03368   0.03313   1.95299
    A9        1.91986  -0.01820   0.00000  -0.05896  -0.05885   1.86101
   A10        1.91986   0.01050   0.00000   0.03368   0.03313   1.95299
   A11        1.90131  -0.00121   0.00000  -0.00802  -0.00791   1.89340
   A12        1.90131  -0.00043   0.00000   0.00749   0.00644   1.90775
   A13        1.90131  -0.00121   0.00000  -0.00802  -0.00791   1.89340
    D1        0.00000   0.00000   0.00000   0.00000   0.00000   0.00000
    D2        3.14159   0.00000   0.00000   0.00000   0.00000   3.14159
    D3        3.14159   0.00000   0.00000   0.00000   0.00000   3.14159
    D4        0.00000   0.00000   0.00000   0.00000   0.00000   0.00000
    D5        0.00000   0.00000   0.00000   0.00000   0.00000   0.00000
    D6        3.14159   0.00000   0.00000   0.00000   0.00000   3.14159
    D7        1.04720   0.00635   0.00000   0.02586   0.02676   1.07396
    D8        3.14159   0.00000   0.00000   0.00000   0.00000   3.14159
    D9       -1.04720  -0.00635   0.00000  -0.02586  -0.02676  -1.07396
         Item               Value     Threshold  Converged?
 Maximum Force            0.073127     0.000450     NO 
 RMS     Force            0.024749     0.000300     NO 
 Maximum Displacement     0.633139     0.001800     NO 
 RMS     Displacement     0.251026     0.001200     NO 
 Predicted change in Energy=-2.981629D-02
 GradGradGradGradGradGradGradGradGradGradGradGradGradGradGradGradGradGrad

                          Input orientation:                          
 ---------------------------------------------------------------------
 Center     Atomic      Atomic             Coordinates (Angstroms)
 Number     Number       Type             X           Y           Z
 ---------------------------------------------------------------------
      1          6           0        0.174860    0.000000   -0.080805
      2          6           0       -0.030394    0.000000    1.227961
      3          1           0        1.189470    0.000000   -0.451267
      4          1           0       -0.617585    0.000000   -0.801883
      5          1           0        0.836695    0.000000    1.882407
      6          8           0       -1.254653    0.000000    1.962098
      7          6           0       -2.482471    0.000000    1.212749
      8          1           0       -2.578397   -0.889563    0.589145
      9          1           0       -3.292848    0.000000    1.941790
     10          1           0       -2.578397    0.889563    0.589145
 ---------------------------------------------------------------------
                    Distance matrix (angstroms):
                    1          2          3          4          5
     1  C    0.000000
     2  C    1.324763   0.000000
     3  H    1.080127   2.075542   0.000000
     4  H    1.071412   2.113069   1.840755   0.000000
     5  H    2.071769   1.086343   2.360187   3.052924   0.000000
     6  O    2.493383   1.427504   3.434832   2.836450   2.092866
     7  C    2.955451   2.452124   4.031389   2.745277   3.386046
     8  H    2.969946   2.773396   4.008815   2.563409   3.758550
     9  H    4.014461   3.339634   5.081132   3.832073   4.129970
    10  H    2.969946   2.773396   4.008815   2.563409   3.758550
                    6          7          8          9         10
     6  O    0.000000
     7  C    1.438423   0.000000
     8  H    2.104428   1.090598   0.000000
     9  H    2.038296   1.090052   1.769579   0.000000
    10  H    2.104428   1.090598   1.779125   1.769579   0.000000
 Stoichiometry    C3H6O
 Framework group  CS[SG(C3H4O),X(H2)]
 Deg. of freedom    16
 Full point group                 CS      NOp   2
 Largest Abelian subgroup         CS      NOp   2
 Largest concise Abelian subgroup CS      NOp   2
                         Standard orientation:                         
 ---------------------------------------------------------------------
 Center     Atomic      Atomic             Coordinates (Angstroms)
 Number     Number       Type             X           Y           Z
 ---------------------------------------------------------------------
      1          6           0       -0.760784    1.419779    0.000000
      2          6           0       -0.952106    0.108904    0.000000
      3          1           0       -1.620279    2.073954    0.000000
      4          1           0        0.209583    1.873993    0.000000
      5          1           0       -1.974050   -0.259569    0.000000
      6          8           0        0.000000   -0.954703    0.000000
      7          6           0        1.394600   -0.602350    0.000000
      8          1           0        1.670807   -0.035082    0.889563
      9          1           0        1.952878   -1.538587    0.000000
     10          1           0        1.670807   -0.035082   -0.889563
 ---------------------------------------------------------------------
 Rotational constants (GHZ):          18.7735895           5.8102502           4.5648813
 Standard basis: STO-6G (5D, 7F)
 There are    21 symmetry adapted cartesian basis functions of A'  symmetry.
 There are     5 symmetry adapted cartesian basis functions of A"  symmetry.
 There are    21 symmetry adapted basis functions of A'  symmetry.
 There are     5 symmetry adapted basis functions of A"  symmetry.
    26 basis functions,   156 primitive gaussians,    26 cartesian basis functions
    16 alpha electrons       16 beta electrons
       nuclear repulsion energy       119.1689817638 Hartrees.
 NAtoms=   10 NActive=   10 NUniq=    9 SFac= 1.23D+00 NAtFMM=   60 NAOKFM=F Big=F
 Integral buffers will be    131072 words long.
 Raffenetti 1 integral format.
 Two-electron integral symmetry is turned on.
 One-electron integrals computed using PRISM.
 NBasis=    26 RedAO= T EigKep=  1.90D-01  NBF=    21     5
 NBsUse=    26 1.00D-06 EigRej= -1.00D+00 NBFU=    21     5
 Initial guess from the checkpoint file:  "/home/nakano/results/FrontierOrbital/6/Gau-74207.chk"
 B after Tr=     0.000000    0.000000    0.000000
         Rot=    0.724372    0.000000    0.000000   -0.689410 Ang= -87.17 deg.
 Initial guess orbital symmetries:
       Occupied  (A') (A') (A') (A') (A') (A') (A') (A') (A') (A")
                 (A') (A') (A') (A") (A') (A")
       Virtual   (A") (A') (A') (A') (A') (A") (A') (A') (A') (A')
 ExpMin= 1.00D-01 ExpMax= 1.36D+03 ExpMxC= 2.49D+02 IAcc=3 IRadAn=         5 AccDes= 0.00D+00
 Harris functional with IExCor=  205 and IRadAn=       5 diagonalized for initial guess.
 HarFok:  IExCor=  205 AccDes= 0.00D+00 IRadAn=         5 IDoV= 1 UseB2=F ITyADJ=14
 ICtDFT=  3500011 ScaDFX=  1.000000  1.000000  1.000000  1.000000
 FoFCou: FMM=F IPFlag=           0 FMFlag=      100000 FMFlg1=           0
         NFxFlg=           0 DoJE=T BraDBF=F KetDBF=T FulRan=T
         wScrn=  0.000000 ICntrl=       500 IOpCl=  0 I1Cent=   200000004 NGrid=           0
         NMat0=    1 NMatS0=      1 NMatT0=    0 NMatD0=    1 NMtDS0=    0 NMtDT0=    0
 Petite list used in FoFCou.
 Keep R1 ints in memory in symmetry-blocked form, NReq=909403.
 Requested convergence on RMS density matrix=1.00D-08 within 128 cycles.
 Requested convergence on MAX density matrix=1.00D-06.
 Requested convergence on             energy=1.00D-06.
 No special actions if energy rises.
 SCF Done:  E(RHF) =  -191.332420050     A.U. after   12 cycles
            NFock= 12  Conv=0.65D-08     -V/T= 2.0015
 Calling FoFJK, ICntrl=      2127 FMM=F ISym2X=1 I1Cent= 0 IOpClX= 0 NMat=1 NMatS=1 NMatT=0.
 ***** Axes restored to original set *****
 -------------------------------------------------------------------
 Center     Atomic                   Forces (Hartrees/Bohr)
 Number     Number              X              Y              Z
 -------------------------------------------------------------------
      1        6          -0.002976109    0.000000000    0.021133979
      2        6          -0.027680452    0.000000000   -0.015396178
      3        1          -0.006363433    0.000000000    0.000217866
      4        1          -0.000964264    0.000000000   -0.002480982
      5        1          -0.007130780    0.000000000    0.007450590
      6        8           0.028026726    0.000000000   -0.003980121
      7        6           0.013967062    0.000000000   -0.004374297
      8        1          -0.000049692    0.001034613   -0.001336777
      9        1           0.003220634    0.000000000    0.000102697
     10        1          -0.000049692   -0.001034613   -0.001336777
 -------------------------------------------------------------------
 Cartesian Forces:  Max     0.028026726 RMS     0.009388631

 GradGradGradGradGradGradGradGradGradGradGradGradGradGradGradGradGradGrad
 Berny optimization.
 Using GEDIIS/GDIIS optimizer.
 FormGI is forming the generalized inverse of G from B-inverse, IUseBI=4.
 Internal  Forces:  Max     0.044310312 RMS     0.011573521
 Search for a local minimum.
 Step number   2 out of a maximum of   41
 All quantities printed in internal units (Hartrees-Bohrs-Radians)
 Mixed Optimization -- RFO/linear search
 Update second derivatives using D2CorX and points    1    2
 DE= -1.55D-02 DEPred=-2.98D-02 R= 5.20D-01
 TightC=F SS=  1.41D+00  RLast= 3.02D-01 DXNew= 5.0454D-01 9.0655D-01
 Trust test= 5.20D-01 RLast= 3.02D-01 DXMaxT set to 5.05D-01
 ITU=  1  0
 Use linear search instead of GDIIS.
     Eigenvalues ---    0.01030   0.01030   0.02215   0.02750   0.02750
     Eigenvalues ---    0.09881   0.10419   0.15195   0.16000   0.16000
     Eigenvalues ---    0.16000   0.16000   0.16157   0.22172   0.32215
     Eigenvalues ---    0.32973   0.33682   0.33682   0.33682   0.33682
     Eigenvalues ---    0.34152   0.38206   0.53210   0.63159
 RFO step:  Lambda=-1.08487963D-02 EMin= 1.03037624D-02
 Quartic linear search produced a step of -0.07671.
 Iteration  1 RMS(Cart)=  0.09200524 RMS(Int)=  0.00102722
 Iteration  2 RMS(Cart)=  0.00106935 RMS(Int)=  0.00002293
 Iteration  3 RMS(Cart)=  0.00000183 RMS(Int)=  0.00002291
 Iteration  4 RMS(Cart)=  0.00000000 RMS(Int)=  0.00002291
 ClnCor:  largest displacement from symmetrization is 5.02D-13 for atom     3.
 Variable       Old X    -DE/DX   Delta X   Delta X   Delta X     New X
                                 (Linear)    (Quad)   (Total)
    R1        2.50344  -0.02024   0.00366  -0.05121  -0.04755   2.45589
    R2        2.04114  -0.00605   0.00288  -0.02969  -0.02681   2.01433
    R3        2.02467   0.00238   0.00414  -0.01345  -0.00931   2.01537
    R4        2.05289  -0.00120   0.00198  -0.01261  -0.01063   2.04227
    R5        2.69759  -0.04431   0.00326  -0.11908  -0.11582   2.58177
    R6        2.71823  -0.01097   0.00168  -0.03368  -0.03200   2.68623
    R7        2.06093  -0.00008   0.00136  -0.00669  -0.00533   2.05560
    R8        2.05990  -0.00233   0.00144  -0.01301  -0.01156   2.04833
    R9        2.06093  -0.00008   0.00136  -0.00669  -0.00533   2.05560
    A1        2.07645   0.00189   0.00138   0.00430   0.00567   2.08212
    A2        2.15351   0.00026  -0.00454   0.02067   0.01613   2.16964
    A3        2.05322  -0.00215   0.00316  -0.02496  -0.02180   2.03142
    A4        2.06177   0.01361   0.00250   0.05639   0.05890   2.12067
    A5        2.26653  -0.00619  -0.01320   0.03501   0.02181   2.28834
    A6        1.95488  -0.00742   0.01070  -0.09141  -0.08070   1.87418
    A7        2.05346  -0.03609  -0.01025  -0.07977  -0.09002   1.96344
    A8        1.95299   0.00125  -0.00254   0.01679   0.01427   1.96727
    A9        1.86101  -0.00324   0.00451  -0.03542  -0.03085   1.83017
   A10        1.95299   0.00125  -0.00254   0.01679   0.01427   1.96727
   A11        1.89340   0.00132   0.00061   0.00571   0.00637   1.89977
   A12        1.90775  -0.00187  -0.00049  -0.01041  -0.01091   1.89684
   A13        1.89340   0.00132   0.00061   0.00571   0.00637   1.89977
    D1        0.00000   0.00000   0.00000   0.00000   0.00000   0.00000
    D2        3.14159   0.00000   0.00000   0.00000   0.00000   3.14159
    D3        3.14159   0.00000   0.00000   0.00000   0.00000   3.14159
    D4        0.00000   0.00000   0.00000   0.00000   0.00000   0.00000
    D5        0.00000   0.00000   0.00000   0.00000   0.00000   0.00000
    D6        3.14159   0.00000   0.00000   0.00000   0.00000   3.14159
    D7        1.07396  -0.00030  -0.00205   0.00564   0.00364   1.07759
    D8        3.14159   0.00000   0.00000   0.00000   0.00000   3.14159
    D9       -1.07396   0.00030   0.00205  -0.00564  -0.00364  -1.07759
         Item               Value     Threshold  Converged?
 Maximum Force            0.044310     0.000450     NO 
 RMS     Force            0.011574     0.000300     NO 
 Maximum Displacement     0.196431     0.001800     NO 
 RMS     Displacement     0.092531     0.001200     NO 
 Predicted change in Energy=-6.030887D-03
 GradGradGradGradGradGradGradGradGradGradGradGradGradGradGradGradGradGrad

                          Input orientation:                          
 ---------------------------------------------------------------------
 Center     Atomic      Atomic             Coordinates (Angstroms)
 Number     Number       Type             X           Y           Z
 ---------------------------------------------------------------------
      1          6           0        0.094305    0.000000   -0.054615
      2          6           0       -0.080187    0.000000    1.233220
      3          1           0        1.085523    0.000000   -0.446677
      4          1           0       -0.697905    0.000000   -0.768614
      5          1           0        0.757054    0.000000    1.916583
      6          8           0       -1.220823    0.000000    1.985210
      7          6           0       -2.397798    0.000000    1.188110
      8          1           0       -2.479214   -0.883816    0.559220
      9          1           0       -3.215462    0.000000    1.899682
     10          1           0       -2.479214    0.883816    0.559220
 ---------------------------------------------------------------------
                    Distance matrix (angstroms):
                    1          2          3          4          5
     1  C    0.000000
     2  C    1.299602   0.000000
     3  H    1.065939   2.044733   0.000000
     4  H    1.066485   2.094974   1.812252   0.000000
     5  H    2.079629   1.080721   2.385977   3.054044   0.000000
     6  O    2.427025   1.366214   3.351613   2.803033   1.979067
     7  C    2.784770   2.318050   3.847863   2.591990   3.237863
     8  H    2.789431   2.644000   3.807927   2.391096   3.618977
     9  H    3.843675   3.205327   4.899374   3.668501   3.972552
    10  H    2.789431   2.644000   3.807927   2.391096   3.618977
                    6          7          8          9         10
     6  O    0.000000
     7  C    1.421491   0.000000
     8  H    2.097171   1.087779   0.000000
     9  H    1.996471   1.083932   1.766361   0.000000
    10  H    2.097171   1.087779   1.767632   1.766361   0.000000
 Stoichiometry    C3H6O
 Framework group  CS[SG(C3H4O),X(H2)]
 Deg. of freedom    16
 Full point group                 CS      NOp   2
 Largest Abelian subgroup         CS      NOp   2
 Largest concise Abelian subgroup CS      NOp   2
                         Standard orientation:                         
 ---------------------------------------------------------------------
 Center     Atomic      Atomic             Coordinates (Angstroms)
 Number     Number       Type             X           Y           Z
 ---------------------------------------------------------------------
      1          6           0        1.297168    0.829501    0.000000
      2          6           0        0.000000    0.909006    0.000000
      3          1           0        1.874659    1.725452    0.000000
      4          1           0        1.843319   -0.086528    0.000000
      5          1           0       -0.507336    1.863243    0.000000
      6          8           0       -0.959619   -0.063450    0.000000
      7          6           0       -0.406846   -1.373061    0.000000
      8          1           0        0.194170   -1.575326    0.883816
      9          1           0       -1.263957   -2.036589    0.000000
     10          1           0        0.194170   -1.575326   -0.883816
 ---------------------------------------------------------------------
 Rotational constants (GHZ):          18.4920900           6.4752574           4.9436358
 Standard basis: STO-6G (5D, 7F)
 There are    21 symmetry adapted cartesian basis functions of A'  symmetry.
 There are     5 symmetry adapted cartesian basis functions of A"  symmetry.
 There are    21 symmetry adapted basis functions of A'  symmetry.
 There are     5 symmetry adapted basis functions of A"  symmetry.
    26 basis functions,   156 primitive gaussians,    26 cartesian basis functions
    16 alpha electrons       16 beta electrons
       nuclear repulsion energy       122.4798383481 Hartrees.
 NAtoms=   10 NActive=   10 NUniq=    9 SFac= 1.23D+00 NAtFMM=   60 NAOKFM=F Big=F
 Integral buffers will be    131072 words long.
 Raffenetti 1 integral format.
 Two-electron integral symmetry is turned on.
 One-electron integrals computed using PRISM.
 NBasis=    26 RedAO= T EigKep=  1.78D-01  NBF=    21     5
 NBsUse=    26 1.00D-06 EigRej= -1.00D+00 NBFU=    21     5
 Initial guess from the checkpoint file:  "/home/nakano/results/FrontierOrbital/6/Gau-74207.chk"
 B after Tr=     0.000000    0.000000    0.000000
         Rot=    0.741166    0.000000    0.000000    0.671322 Ang=  84.34 deg.
 Initial guess orbital symmetries:
       Occupied  (A') (A') (A') (A') (A') (A') (A') (A') (A') (A")
                 (A') (A') (A') (A") (A') (A")
       Virtual   (A") (A') (A') (A') (A') (A") (A') (A') (A') (A')
 ExpMin= 1.00D-01 ExpMax= 1.36D+03 ExpMxC= 2.49D+02 IAcc=3 IRadAn=         5 AccDes= 0.00D+00
 Harris functional with IExCor=  205 and IRadAn=       5 diagonalized for initial guess.
 HarFok:  IExCor=  205 AccDes= 0.00D+00 IRadAn=         5 IDoV= 1 UseB2=F ITyADJ=14
 ICtDFT=  3500011 ScaDFX=  1.000000  1.000000  1.000000  1.000000
 FoFCou: FMM=F IPFlag=           0 FMFlag=      100000 FMFlg1=           0
         NFxFlg=           0 DoJE=T BraDBF=F KetDBF=T FulRan=T
         wScrn=  0.000000 ICntrl=       500 IOpCl=  0 I1Cent=   200000004 NGrid=           0
         NMat0=    1 NMatS0=      1 NMatT0=    0 NMatD0=    1 NMtDS0=    0 NMtDT0=    0
 Petite list used in FoFCou.
 Keep R1 ints in memory in symmetry-blocked form, NReq=909817.
 Requested convergence on RMS density matrix=1.00D-08 within 128 cycles.
 Requested convergence on MAX density matrix=1.00D-06.
 Requested convergence on             energy=1.00D-06.
 No special actions if energy rises.
 SCF Done:  E(RHF) =  -191.334727186     A.U. after   11 cycles
            NFock= 11  Conv=0.21D-08     -V/T= 2.0006
 Calling FoFJK, ICntrl=      2127 FMM=F ISym2X=1 I1Cent= 0 IOpClX= 0 NMat=1 NMatS=1 NMatT=0.
 ***** Axes restored to original set *****
 -------------------------------------------------------------------
 Center     Atomic                   Forces (Hartrees/Bohr)
 Number     Number              X              Y              Z
 -------------------------------------------------------------------
      1        6           0.000466229    0.000000000   -0.014495035
      2        6           0.018794103    0.000000000    0.016595444
      3        1           0.006049186    0.000000000   -0.003012445
      4        1          -0.004217310    0.000000000   -0.003192052
      5        1           0.007931542    0.000000000   -0.000812025
      6        8          -0.013725681    0.000000000    0.002101162
      7        6          -0.011798083    0.000000000    0.005581959
      8        1           0.001281476   -0.001599158   -0.000713326
      9        1          -0.006062939    0.000000000   -0.001340357
     10        1           0.001281476    0.001599158   -0.000713326
 -------------------------------------------------------------------
 Cartesian Forces:  Max     0.018794103 RMS     0.006800236

 GradGradGradGradGradGradGradGradGradGradGradGradGradGradGradGradGradGrad
 Berny optimization.
 Using GEDIIS/GDIIS optimizer.
 FormGI is forming the generalized inverse of G from B-inverse, IUseBI=4.
 Internal  Forces:  Max     0.026937513 RMS     0.007811071
 Search for a local minimum.
 Step number   3 out of a maximum of   41
 All quantities printed in internal units (Hartrees-Bohrs-Radians)
 Mixed Optimization -- RFO/linear search
 Update second derivatives using D2CorX and points    1    2    3
 DE= -2.31D-03 DEPred=-6.03D-03 R= 3.83D-01
 Trust test= 3.83D-01 RLast= 1.97D-01 DXMaxT set to 5.05D-01
 ITU=  0  1  0
 Use linear search instead of GDIIS.
     Eigenvalues ---    0.01030   0.01030   0.02260   0.02750   0.02750
     Eigenvalues ---    0.09789   0.10526   0.15609   0.16000   0.16000
     Eigenvalues ---    0.16000   0.16122   0.17192   0.25122   0.32557
     Eigenvalues ---    0.33629   0.33682   0.33682   0.33682   0.33811
     Eigenvalues ---    0.37856   0.42804   0.58002   0.66111
 RFO step:  Lambda=-4.16808806D-04 EMin= 1.03037624D-02
 Quartic linear search produced a step of -0.36919.
 Iteration  1 RMS(Cart)=  0.02624390 RMS(Int)=  0.00014548
 Iteration  2 RMS(Cart)=  0.00015154 RMS(Int)=  0.00003852
 Iteration  3 RMS(Cart)=  0.00000003 RMS(Int)=  0.00003852
 ClnCor:  largest displacement from symmetrization is 6.06D-13 for atom    10.
 Variable       Old X    -DE/DX   Delta X   Delta X   Delta X     New X
                                 (Linear)    (Quad)   (Total)
    R1        2.45589   0.02082   0.01755   0.00677   0.02433   2.48022
    R2        2.01433   0.00673   0.00990   0.00256   0.01246   2.02679
    R3        2.01537   0.00527   0.00344   0.00773   0.01116   2.02653
    R4        2.04227   0.00563   0.00392   0.00659   0.01052   2.05278
    R5        2.58177   0.02694   0.04276  -0.00240   0.04036   2.62213
    R6        2.68623   0.01109   0.01181   0.00535   0.01716   2.70339
    R7        2.05560   0.00162   0.00197   0.00144   0.00340   2.05901
    R8        2.04833   0.00369   0.00427   0.00258   0.00685   2.05518
    R9        2.05560   0.00162   0.00197   0.00144   0.00340   2.05901
    A1        2.08212   0.00108  -0.00209   0.00673   0.00463   2.08676
    A2        2.16964  -0.00099  -0.00596   0.00324  -0.00272   2.16693
    A3        2.03142  -0.00008   0.00805  -0.00997  -0.00192   2.02950
    A4        2.12067  -0.00274  -0.02174   0.01662  -0.00512   2.11555
    A5        2.28834  -0.00605  -0.00805  -0.01136  -0.01941   2.26892
    A6        1.87418   0.00879   0.02980  -0.00526   0.02454   1.89872
    A7        1.96344   0.01582   0.03324  -0.00548   0.02776   1.99119
    A8        1.96727  -0.00319  -0.00527  -0.00655  -0.01191   1.95536
    A9        1.83017   0.00886   0.01139   0.02086   0.03223   1.86240
   A10        1.96727  -0.00319  -0.00527  -0.00655  -0.01191   1.95536
   A11        1.89977  -0.00133  -0.00235   0.00063  -0.00174   1.89803
   A12        1.89684   0.00044   0.00403  -0.00763  -0.00373   1.89311
   A13        1.89977  -0.00133  -0.00235   0.00063  -0.00174   1.89803
    D1        0.00000   0.00000   0.00000   0.00000   0.00000   0.00000
    D2        3.14159   0.00000   0.00000   0.00000   0.00000   3.14159
    D3        3.14159   0.00000   0.00000   0.00000   0.00000   3.14159
    D4        0.00000   0.00000   0.00000   0.00000   0.00000   0.00000
    D5        0.00000   0.00000   0.00000   0.00000   0.00000   0.00000
    D6        3.14159   0.00000   0.00000   0.00000   0.00000   3.14159
    D7        1.07759  -0.00219  -0.00134  -0.01020  -0.01146   1.06614
    D8        3.14159   0.00000   0.00000   0.00000   0.00000   3.14159
    D9       -1.07759   0.00219   0.00134   0.01020   0.01146  -1.06614
         Item               Value     Threshold  Converged?
 Maximum Force            0.026938     0.000450     NO 
 RMS     Force            0.007811     0.000300     NO 
 Maximum Displacement     0.077651     0.001800     NO 
 RMS     Displacement     0.026195     0.001200     NO 
 Predicted change in Energy=-1.725615D-03
 GradGradGradGradGradGradGradGradGradGradGradGradGradGradGradGradGradGrad

                          Input orientation:                          
 ---------------------------------------------------------------------
 Center     Atomic      Atomic             Coordinates (Angstroms)
 Number     Number       Type             X           Y           Z
 ---------------------------------------------------------------------
      1          6           0        0.112781    0.000000   -0.061533
      2          6           0       -0.057891    0.000000    1.239798
      3          1           0        1.106581    0.000000   -0.464880
      4          1           0       -0.688810    0.000000   -0.773909
      5          1           0        0.790073    0.000000    1.918749
      6          8           0       -1.227795    0.000000    1.985908
      7          6           0       -2.422308    0.000000    1.198716
      8          1           0       -2.494901   -0.884094    0.566027
      9          1           0       -3.256553    0.000000    1.896435
     10          1           0       -2.494901    0.884094    0.566027
 ---------------------------------------------------------------------
                    Distance matrix (angstroms):
                    1          2          3          4          5
     1  C    0.000000
     2  C    1.312475   0.000000
     3  H    1.072533   2.064442   0.000000
     4  H    1.072394   2.110230   1.821792   0.000000
     5  H    2.092902   1.086286   2.404551   3.072051   0.000000
     6  O    2.447275   1.387571   3.384623   2.811955   2.018984
     7  C    2.831060   2.364773   3.901360   2.626074   3.292087
     8  H    2.824085   2.678545   3.849034   2.416406   3.660946
     9  H    3.896929   3.265366   4.961124   3.704598   4.046687
    10  H    2.824085   2.678545   3.849034   2.416406   3.660946
                    6          7          8          9         10
     6  O    0.000000
     7  C    1.430571   0.000000
     8  H    2.098390   1.089581   0.000000
     9  H    2.030731   1.087556   1.769667   0.000000
    10  H    2.098390   1.089581   1.768187   1.769667   0.000000
 Stoichiometry    C3H6O
 Framework group  CS[SG(C3H4O),X(H2)]
 Deg. of freedom    16
 Full point group                 CS      NOp   2
 Largest Abelian subgroup         CS      NOp   2
 Largest concise Abelian subgroup CS      NOp   2
                         Standard orientation:                         
 ---------------------------------------------------------------------
 Center     Atomic      Atomic             Coordinates (Angstroms)
 Number     Number       Type             X           Y           Z
 ---------------------------------------------------------------------
      1          6           0        1.309607    0.844113    0.000000
      2          6           0        0.000000    0.930818    0.000000
      3          1           0        1.899237    1.740028    0.000000
      4          1           0        1.851757   -0.081145    0.000000
      5          1           0       -0.500313    1.895030    0.000000
      6          8           0       -0.960180   -0.070885    0.000000
      7          6           0       -0.421375   -1.396111    0.000000
      8          1           0        0.184961   -1.590843    0.884094
      9          1           0       -1.268557   -2.078065    0.000000
     10          1           0        0.184961   -1.590843   -0.884094
 ---------------------------------------------------------------------
 Rotational constants (GHZ):          18.3409707           6.2785056           4.8178496
 Standard basis: STO-6G (5D, 7F)
 There are    21 symmetry adapted cartesian basis functions of A'  symmetry.
 There are     5 symmetry adapted cartesian basis functions of A"  symmetry.
 There are    21 symmetry adapted basis functions of A'  symmetry.
 There are     5 symmetry adapted basis functions of A"  symmetry.
    26 basis functions,   156 primitive gaussians,    26 cartesian basis functions
    16 alpha electrons       16 beta electrons
       nuclear repulsion energy       121.2200991686 Hartrees.
 NAtoms=   10 NActive=   10 NUniq=    9 SFac= 1.23D+00 NAtFMM=   60 NAOKFM=F Big=F
 Integral buffers will be    131072 words long.
 Raffenetti 1 integral format.
 Two-electron integral symmetry is turned on.
 One-electron integrals computed using PRISM.
 NBasis=    26 RedAO= T EigKep=  1.85D-01  NBF=    21     5
 NBsUse=    26 1.00D-06 EigRej= -1.00D+00 NBFU=    21     5
 Initial guess from the checkpoint file:  "/home/nakano/results/FrontierOrbital/6/Gau-74207.chk"
 B after Tr=     0.000000    0.000000    0.000000
         Rot=    1.000000    0.000000    0.000000   -0.000153 Ang=  -0.02 deg.
 Initial guess orbital symmetries:
       Occupied  (A') (A') (A') (A') (A') (A') (A') (A') (A') (A")
                 (A') (A') (A') (A") (A') (A")
       Virtual   (A") (A') (A') (A') (A") (A') (A') (A') (A') (A')
 ExpMin= 1.00D-01 ExpMax= 1.36D+03 ExpMxC= 2.49D+02 IAcc=3 IRadAn=         5 AccDes= 0.00D+00
 Harris functional with IExCor=  205 and IRadAn=       5 diagonalized for initial guess.
 HarFok:  IExCor=  205 AccDes= 0.00D+00 IRadAn=         5 IDoV= 1 UseB2=F ITyADJ=14
 ICtDFT=  3500011 ScaDFX=  1.000000  1.000000  1.000000  1.000000
 FoFCou: FMM=F IPFlag=           0 FMFlag=      100000 FMFlg1=           0
         NFxFlg=           0 DoJE=T BraDBF=F KetDBF=T FulRan=T
         wScrn=  0.000000 ICntrl=       500 IOpCl=  0 I1Cent=   200000004 NGrid=           0
         NMat0=    1 NMatS0=      1 NMatT0=    0 NMatD0=    1 NMtDS0=    0 NMtDT0=    0
 Petite list used in FoFCou.
 Keep R1 ints in memory in symmetry-blocked form, NReq=909614.
 Requested convergence on RMS density matrix=1.00D-08 within 128 cycles.
 Requested convergence on MAX density matrix=1.00D-06.
 Requested convergence on             energy=1.00D-06.
 No special actions if energy rises.
 SCF Done:  E(RHF) =  -191.336329053     A.U. after   10 cycles
            NFock= 10  Conv=0.55D-08     -V/T= 2.0010
 Calling FoFJK, ICntrl=      2127 FMM=F ISym2X=1 I1Cent= 0 IOpClX= 0 NMat=1 NMatS=1 NMatT=0.
 ***** Axes restored to original set *****
 -------------------------------------------------------------------
 Center     Atomic                   Forces (Hartrees/Bohr)
 Number     Number              X              Y              Z
 -------------------------------------------------------------------
      1        6          -0.000634508    0.000000000    0.000900201
      2        6           0.000621350    0.000000000    0.001020191
      3        1           0.000766658    0.000000000   -0.000274590
      4        1          -0.000716248    0.000000000    0.000616482
      5        1           0.000640607    0.000000000   -0.001255961
      6        8          -0.001737462    0.000000000   -0.000489909
      7        6           0.000551350    0.000000000   -0.000556031
      8        1           0.000119234   -0.000457097   -0.000031180
      9        1           0.000269786    0.000000000    0.000101978
     10        1           0.000119234    0.000457097   -0.000031180
 -------------------------------------------------------------------
 Cartesian Forces:  Max     0.001737462 RMS     0.000594061

 GradGradGradGradGradGradGradGradGradGradGradGradGradGradGradGradGradGrad
 Berny optimization.
 Using GEDIIS/GDIIS optimizer.
 FormGI is forming the generalized inverse of G from B-inverse, IUseBI=4.
 Internal  Forces:  Max     0.002854937 RMS     0.000958491
 Search for a local minimum.
 Step number   4 out of a maximum of   41
 All quantities printed in internal units (Hartrees-Bohrs-Radians)
 Mixed Optimization -- En-DIIS/RFO-DIIS
 Update second derivatives using D2CorX and points    1    2    3    4
 DE= -1.60D-03 DEPred=-1.73D-03 R= 9.28D-01
 TightC=F SS=  1.41D+00  RLast= 7.99D-02 DXNew= 8.4853D-01 2.3979D-01
 Trust test= 9.28D-01 RLast= 7.99D-02 DXMaxT set to 5.05D-01
 ITU=  1  0  1  0
 Use linear search instead of GDIIS.
     Eigenvalues ---    0.01030   0.01030   0.02252   0.02750   0.02750
     Eigenvalues ---    0.10049   0.10376   0.15883   0.16000   0.16000
     Eigenvalues ---    0.16086   0.16329   0.17200   0.24656   0.33113
[...]
  21        2PX         0.00000   0.09809  -0.58607  -0.47984   0.02985
  22        2PY         0.00000  -0.25416   0.27302  -0.14014  -0.00372
  23        2PZ         1.10613   0.00000   0.00000   0.00000   0.00000
  24 8   H  1S         -0.85636  -0.49202   0.62081  -0.18166  -0.08350
  25 9   H  1S          0.00000  -0.51750  -0.00369  -0.77642  -0.03484
  26 10  H  1S          0.85636  -0.49202   0.62081  -0.18166  -0.08350
                          26
                           V
     Eigenvalues --     1.02724
   1 1   C  1S          0.09561
   2        2S         -0.86387
   3        2PX         1.09053
   4        2PY        -0.29285
   5        2PZ         0.00000
   6 2   C  1S         -0.07658
   7        2S          0.76187
   8        2PX         1.21451
   9        2PY         0.06582
  10        2PZ         0.00000
  11 3   H  1S          0.03357
  12 4   H  1S         -0.25327
  13 5   H  1S          0.09117
  14 6   O  1S         -0.01521
  15        2S          0.12904
  16        2PX         0.03915
  17        2PY         0.35407
  18        2PZ         0.00000
  19 7   C  1S         -0.01553
  20        2S          0.09427
  21        2PX        -0.12296
  22        2PY         0.08829
  23        2PZ         0.00000
  24 8   H  1S          0.03505
  25 9   H  1S         -0.06709
  26 10  H  1S          0.03505
     Density Matrix:
                           1         2         3         4         5
   1 1   C  1S          2.07373
   2        2S         -0.21509   0.75087
   3        2PX        -0.00345   0.04879   0.57937
   4        2PY         0.00031  -0.00162   0.00449   0.62838
   5        2PZ         0.00000   0.00000   0.00000   0.00000   0.92102
   6 2   C  1S          0.02721  -0.06617   0.11740  -0.00142   0.00000
   7        2S         -0.07069   0.11070  -0.31083  -0.00262   0.00000
   8        2PX        -0.11078   0.26815  -0.42347   0.03489   0.00000
   9        2PY         0.01840  -0.05551   0.06223   0.01491   0.00000
  10        2PZ         0.00000   0.00000   0.00000   0.00000   0.76502
  11 3   H  1S         -0.10236   0.28700   0.29674   0.46233   0.00000
  12 4   H  1S         -0.10148   0.28446   0.25488  -0.48740   0.00000
  13 5   H  1S          0.03161  -0.10913   0.10323  -0.07829   0.00000
  14 6   O  1S         -0.00059  -0.00532  -0.00024  -0.01269   0.00000
  15        2S         -0.00331   0.04595  -0.02010   0.06267   0.00000
  16        2PX         0.03452  -0.13732   0.15410   0.04112   0.00000
  17        2PY         0.00278   0.01439   0.01624   0.02731   0.00000
  18        2PZ         0.00000   0.00000   0.00000   0.00000  -0.37472
  19 7   C  1S         -0.00350   0.01381  -0.00684  -0.00585   0.00000
  20        2S          0.01413  -0.05408   0.03114   0.02326   0.00000
  21        2PX         0.00685  -0.02135  -0.01415   0.03542   0.00000
  22        2PY         0.00971  -0.05006   0.04252  -0.01180   0.00000
  23        2PZ         0.00000   0.00000   0.00000   0.00000  -0.03980
  24 8   H  1S          0.00388  -0.01000  -0.01413   0.01887   0.05558
  25 9   H  1S         -0.00414   0.01751   0.01032  -0.02077   0.00000
  26 10  H  1S          0.00388  -0.01000  -0.01413   0.01887  -0.05558
                           6         7         8         9        10
   6 2   C  1S          2.07489
   7        2S         -0.23178   0.82923
   8        2PX        -0.01652   0.00505   0.58652
   9        2PY        -0.01029   0.01193  -0.06253   0.59050
  10        2PZ         0.00000   0.00000   0.00000   0.00000   0.77398
  11 3   H  1S          0.03251  -0.10737  -0.08223  -0.03225   0.00000
  12 4   H  1S          0.02317  -0.08026  -0.11068   0.05797   0.00000
  13 5   H  1S         -0.10169   0.28449  -0.25104   0.48578   0.00000
  14 6   O  1S          0.00610   0.00268   0.02322   0.02842   0.00000
  15        2S         -0.00160  -0.11483  -0.02437  -0.06364   0.00000
  16        2PX        -0.08690   0.32393  -0.26558  -0.38631   0.00000
  17        2PY        -0.06864   0.22988  -0.23264  -0.27166   0.00000
  18        2PZ         0.00000   0.00000   0.00000   0.00000   0.17221
  19 7   C  1S         -0.00387   0.01530  -0.00534  -0.01911   0.00000
  20        2S          0.01636  -0.05905   0.01884   0.08804   0.00000
  21        2PX         0.00304  -0.02373  -0.01328  -0.01116   0.00000
  22        2PY         0.02138  -0.08887   0.06158   0.10984   0.00000
  23        2PZ         0.00000   0.00000   0.00000   0.00000  -0.05525
  24 8   H  1S          0.00778  -0.03445   0.00525   0.03194  -0.03069
  25 9   H  1S         -0.01995   0.08781  -0.05238  -0.08867   0.00000
  26 10  H  1S          0.00778  -0.03445   0.00525   0.03194   0.03069
                          11        12        13        14        15
  11 3   H  1S          0.58780
  12 4   H  1S         -0.14107   0.59258
  13 5   H  1S         -0.08388   0.11753   0.58861
  14 6   O  1S         -0.00618   0.00549   0.02984   2.10289
  15        2S          0.02801  -0.02965  -0.15803  -0.44048   1.95154
  16        2PX         0.11650  -0.06407   0.00464   0.09279  -0.55341
  17        2PY         0.05058  -0.03552  -0.14490  -0.01675   0.09496
  18        2PZ         0.00000   0.00000   0.00000   0.00000   0.00000
  19 7   C  1S         -0.00367   0.00522  -0.01766   0.00457   0.00394
  20        2S          0.01420  -0.01847   0.07903   0.00266  -0.10857
  21        2PX         0.01855  -0.02686  -0.02870   0.01171  -0.01066
  22        2PY        -0.00714   0.02613   0.11647  -0.03189   0.06626
  23        2PZ         0.00000   0.00000   0.00000   0.00000   0.00000
  24 8   H  1S          0.00301  -0.01448  -0.00479   0.00383  -0.00175
  25 9   H  1S          0.00027   0.00205  -0.03612   0.02597  -0.13990
  26 10  H  1S          0.00301  -0.01448  -0.00479   0.00383  -0.00175
                          16        17        18        19        20
  16        2PX         1.28654
  17        2PY        -0.10186   0.77314
  18        2PZ         0.00000   0.00000   1.86234
  19 7   C  1S         -0.05105   0.08633   0.00000   2.07075
  20        2S          0.19269  -0.30972   0.00000  -0.22846   0.84708
  21        2PX        -0.08618   0.17727   0.00000  -0.00885   0.01821
  22        2PY         0.30105  -0.50656   0.00000   0.01254   0.00279
  23        2PZ         0.00000   0.00000   0.06155   0.00000   0.00000
  24 8   H  1S         -0.11900   0.07914  -0.20359  -0.08714   0.22806
  25 9   H  1S          0.07859   0.09772   0.00000  -0.08720   0.22562
  26 10  H  1S         -0.11900   0.07914   0.20359  -0.08714   0.22806
                          21        22        23        24        25
  21        2PX         0.65862
  22        2PY         0.05832   0.56931
  23        2PZ         0.00000   0.00000   0.66902
  24 8   H  1S          0.32159  -0.07089   0.48151   0.61775
  25 9   H  1S         -0.47827  -0.34898   0.00000  -0.12609   0.59813
  26 10  H  1S          0.32159  -0.07089  -0.48151  -0.14439  -0.12609
                          26
  26 10  H  1S          0.61775
    Full Mulliken population analysis:
                           1         2         3         4         5
   1 1   C  1S          2.07373
   2        2S         -0.05232   0.75087
   3        2PX         0.00000   0.00000   0.57937
   4        2PY         0.00000   0.00000   0.00000   0.62838
   5        2PZ         0.00000   0.00000   0.00000   0.00000   0.92102
   6 2   C  1S          0.00000  -0.00313  -0.00938  -0.00001   0.00000
   7        2S         -0.00335   0.04560   0.12919  -0.00008   0.00000
   8        2PX        -0.00885   0.11145   0.13840   0.00154   0.00000
   9        2PY        -0.00011   0.00177   0.00275   0.00366   0.00000
  10        2PZ         0.00000   0.00000   0.00000   0.00000   0.19036
  11 3   H  1S         -0.00686   0.14380   0.07882   0.18089   0.00000
  12 4   H  1S         -0.00682   0.14266   0.05916   0.20098   0.00000
  13 5   H  1S          0.00020  -0.01232  -0.01208  -0.00546   0.00000
  14 6   O  1S          0.00000  -0.00001   0.00000   0.00001   0.00000
  15        2S          0.00000   0.00152   0.00095  -0.00117   0.00000
  16        2PX         0.00003  -0.00510  -0.00768  -0.00099   0.00000
  17        2PY         0.00000   0.00021  -0.00039   0.00003   0.00000
  18        2PZ         0.00000   0.00000   0.00000   0.00000  -0.00404
  19 7   C  1S          0.00000   0.00001   0.00001   0.00001   0.00000
  20        2S          0.00001  -0.00164  -0.00081  -0.00078   0.00000
  21        2PX         0.00001  -0.00056   0.00022  -0.00116   0.00000
  22        2PY         0.00001  -0.00168  -0.00139   0.00038   0.00000
  23        2PZ         0.00000   0.00000   0.00000   0.00000  -0.00040
  24 8   H  1S          0.00000  -0.00031   0.00022  -0.00065   0.00070
  25 9   H  1S          0.00000   0.00006  -0.00003   0.00008   0.00000
  26 10  H  1S          0.00000  -0.00031   0.00022  -0.00065   0.00070
                           6         7         8         9        10
   6 2   C  1S          2.07489
   7        2S         -0.05638   0.82923
   8        2PX         0.00000   0.00000   0.58652
   9        2PY         0.00000   0.00000   0.00000   0.59050
  10        2PZ         0.00000   0.00000   0.00000   0.00000   0.77398
  11 3   H  1S          0.00022  -0.01262  -0.01074  -0.00174   0.00000
  12 4   H  1S          0.00014  -0.00882  -0.01281  -0.00378   0.00000
  13 5   H  1S         -0.00663   0.14049   0.05278   0.20351   0.00000
  14 6   O  1S          0.00000   0.00007  -0.00068  -0.00087   0.00000
  15        2S         -0.00003  -0.03188   0.00599   0.01626   0.00000
  16        2PX        -0.00212   0.05902   0.01774   0.08492   0.00000
  17        2PY        -0.00174   0.04356   0.05114   0.02285   0.00000
  18        2PZ         0.00000   0.00000   0.00000   0.00000   0.02489
  19 7   C  1S          0.00000   0.00005   0.00000   0.00010   0.00000
  20        2S          0.00005  -0.00444  -0.00033  -0.00860   0.00000
  21        2PX         0.00000  -0.00042  -0.00032   0.00030   0.00000
  22        2PY         0.00011  -0.00868  -0.00167  -0.01326   0.00000
  23        2PZ         0.00000   0.00000   0.00000   0.00000  -0.00160
  24 8   H  1S          0.00001  -0.00137   0.00002  -0.00152  -0.00051
  25 9   H  1S         -0.00001   0.00111   0.00034   0.00138   0.00000
  26 10  H  1S          0.00001  -0.00137   0.00002  -0.00152  -0.00051
                          11        12        13        14        15
  11 3   H  1S          0.58780
  12 4   H  1S         -0.02232   0.59258
  13 5   H  1S         -0.00515   0.00226   0.58861
  14 6   O  1S          0.00000   0.00000   0.00014   2.10289
  15        2S          0.00012  -0.00046  -0.01189  -0.10181   1.95154
  16        2PX         0.00048  -0.00110   0.00009   0.00000   0.00000
  17        2PY         0.00013   0.00001  -0.01118   0.00000   0.00000
  18        2PZ         0.00000   0.00000   0.00000   0.00000   0.00000
  19 7   C  1S          0.00000   0.00001  -0.00001   0.00000   0.00007
  20        2S          0.00005  -0.00085   0.00094   0.00006  -0.02810
  21        2PX         0.00005  -0.00136   0.00001  -0.00017   0.00135
  22        2PY        -0.00003   0.00075   0.00185  -0.00113   0.02052
  23        2PZ         0.00000   0.00000   0.00000   0.00000   0.00000
  24 8   H  1S          0.00001  -0.00092  -0.00003   0.00002  -0.00011
  25 9   H  1S          0.00000   0.00001  -0.00011   0.00012  -0.01050
  26 10  H  1S          0.00001  -0.00092  -0.00003   0.00002  -0.00011
                          16        17        18        19        20
  16        2PX         1.28654
  17        2PY         0.00000   0.77314
  18        2PZ         0.00000   0.00000   1.86234
  19 7   C  1S         -0.00059  -0.00243   0.00000   2.07075
  20        2S          0.01820   0.07137   0.00000  -0.05557   0.84708
  21        2PX        -0.00617   0.02604   0.00000   0.00000   0.00000
  22        2PY         0.04422   0.11476   0.00000   0.00000   0.00000
  23        2PZ         0.00000   0.00000   0.00811   0.00000   0.00000
  24 8   H  1S         -0.00453  -0.00398  -0.00597  -0.00562   0.11207
  25 9   H  1S         -0.00093  -0.00765   0.00000  -0.00566   0.11119
  26 10  H  1S         -0.00453  -0.00398  -0.00597  -0.00562   0.11207
                          21        22        23        24        25
  21        2PX         0.65862
  22        2PY         0.00000   0.56931
  23        2PZ         0.00000   0.00000   0.66902
  24 8   H  1S          0.08354   0.00587   0.18275   0.61775
  25 9   H  1S          0.17429   0.10254   0.00000  -0.02168   0.59813
  26 10  H  1S          0.08354   0.00587   0.18275  -0.02482  -0.02168
                          26
  26 10  H  1S          0.61775
     Gross orbital populations:
                           1
   1 1   C  1S          1.99569
   2        2S          1.12059
   3        2PX         0.95755
   4        2PY         1.00501
   5        2PZ         1.10834
   6 2   C  1S          1.99602
   7        2S          1.11893
   8        2PX         0.93055
   9        2PY         0.89660
  10        2PZ         0.98660
  11 3   H  1S          0.93294
  12 4   H  1S          0.93843
  13 5   H  1S          0.92599
  14 6   O  1S          1.99865
  15        2S          1.81225
  16        2PX         1.47751
  17        2PY         1.07190
  18        2PZ         1.87936
  19 7   C  1S          1.99550
  20        2S          1.17197
  21        2PX         1.01781
  22        2PY         0.83834
  23        2PZ         1.04063
  24 8   H  1S          0.93094
  25 9   H  1S          0.92099
  26 10  H  1S          0.93094
          Condensed to atoms (all electrons):
               1          2          3          4          5          6
     1  C    4.848733   0.599816   0.396650   0.395985  -0.029657  -0.016617
     2  C    0.599816   4.742361  -0.024874  -0.025267   0.390156   0.289125
     3  H    0.396650  -0.024874   0.587798  -0.022319  -0.005152   0.000734
     4  H    0.395985  -0.025267  -0.022319   0.592578   0.002255  -0.001540
     5  H   -0.029657   0.390156  -0.005152   0.002255   0.588614  -0.022853
     6  O   -0.016617   0.289125   0.000734  -0.001540  -0.022853   7.772832
     7  C   -0.007777  -0.038703   0.000075  -0.001439   0.002789   0.266104
     8  H   -0.000028  -0.003372   0.000014  -0.000917  -0.000030  -0.014582
     9  H    0.000103   0.002830   0.000000   0.000013  -0.000106  -0.018967
    10  H   -0.000028  -0.003372   0.000014  -0.000917  -0.000030  -0.014582
               7          8          9         10
     1  C   -0.007777  -0.000028   0.000103  -0.000028
     2  C   -0.038703  -0.003372   0.002830  -0.003372
     3  H    0.000075   0.000014   0.000000   0.000014
     4  H   -0.001439  -0.000917   0.000013  -0.000917
     5  H    0.002789  -0.000030  -0.000106  -0.000030
     6  O    0.266104  -0.014582  -0.018967  -0.014582
     7  C    4.703641   0.378603   0.382353   0.378603
     8  H    0.378603   0.617749  -0.021683  -0.024817
     9  H    0.382353  -0.021683   0.598129  -0.021683
    10  H    0.378603  -0.024817  -0.021683   0.617749
 Mulliken charges:
               1
     1  C   -0.187181
     2  C    0.071300
     3  H    0.067061
     4  H    0.061570
     5  H    0.074014
     6  O   -0.239653
     7  C   -0.064249
     8  H    0.069063
     9  H    0.079012
    10  H    0.069063
 Sum of Mulliken charges =   0.00000
 Mulliken charges with hydrogens summed into heavy atoms:
               1
     1  C   -0.058550
     2  C    0.145314
     6  O   -0.239653
     7  C    0.152889
 Electronic spatial extent (au):  <R**2>=            287.8080
 Charge=              0.0000 electrons
 Dipole moment (field-independent basis, Debye):
    X=              0.7670    Y=             -0.6018    Z=              0.0000  Tot=              0.9749
 Quadrupole moment (field-independent basis, Debye-Ang):
   XX=            -24.8176   YY=            -20.4641   ZZ=            -23.9914
   XY=              0.0267   XZ=              0.0000   YZ=              0.0000
 Traceless Quadrupole moment (field-independent basis, Debye-Ang):
   XX=             -1.7266   YY=              2.6270   ZZ=             -0.9004
   XY=              0.0267   XZ=              0.0000   YZ=              0.0000
 Octapole moment (field-independent basis, Debye-Ang**2):
  XXX=             -3.1023  YYY=              0.3471  ZZZ=              0.0000  XYY=             -3.1119
  XXY=             -0.8607  XXZ=              0.0000  XZZ=             -2.0757  YZZ=             -1.2680
  YYZ=              0.0000  XYZ=              0.0000
 Hexadecapole moment (field-independent basis, Debye-Ang**3):
 XXXX=           -138.6344 YYYY=           -180.7049 ZZZZ=            -24.8556 XXXY=            -32.1337
 XXXZ=              0.0000 YYYX=            -31.0983 YYYZ=              0.0000 ZZZX=              0.0000
 ZZZY=              0.0000 XXYY=            -49.0519 XXZZ=            -28.4677 YYZZ=            -36.4421
 XXYZ=              0.0000 YYXZ=              0.0000 ZZXY=            -12.9511
 N-N= 1.213288263048D+02 E-N=-6.922425157530D+02  KE= 1.911415939226D+02
 Symmetry A'   KE= 1.817475739017D+02
 Symmetry A"   KE= 9.394020020881D+00
 Orbital energies and kinetic energies (alpha):
                                 1                 2
   1         O               -20.560132         29.106747
   2         O               -11.253095         15.895582
   3         O               -11.235869         15.901830
   4         O               -11.153124         15.892435
   5         O                -1.327137          2.447670
   6         O                -0.982128          1.631279
   7         O                -0.903364          1.494165
   8         O                -0.726488          1.402675
   9         O                -0.638126          1.132830
  10         O                -0.597094          1.204038
  11         O                -0.589803          1.341075
  12         O                -0.533146          1.124492
  13         O                -0.473815          1.314696
  14         O                -0.439254          1.669644
  15         O                -0.416187          2.188311
  16         O                -0.285977          1.823328
  17         V                 0.327755          1.973360
  18         V                 0.532253          3.276505
  19         V                 0.595829          2.465565
  20         V                 0.650482          2.446856
  21         V                 0.686181          2.218814
  22         V                 0.690966          2.723168
  23         V                 0.720827          2.869104
  24         V                 0.757968          3.012931
  25         V                 0.917745          2.792264
  26         V                 1.027244          3.590998
 Total kinetic energy from orbitals= 1.911415939226D+02
 1\1\GINC-HPC\FOpt\RHF\STO-6G\C3H6O1\NAKANO\04-Oct-2021\0\\# hf/sto-6g 
 pop=full opt\\CH2CHOCH3 molecule : Opt.\\0,1\C,0.1063582781,0.,-0.0560
 312116\C,-0.0563837309,0.,1.2461873445\H,1.0967882887,0.,-0.469405336\
 H,-0.7042877908,0.,-0.7580924421\H,0.797173489,0.,1.9171396806\O,-1.22
 9129338,0.,1.9891326126\C,-2.4174945384,0.,1.1933920373\H,-2.485659594
 4,-0.88517546,0.5612003651\H,-3.2554281525,0.,1.8866156263\H,-2.485659
 5944,0.88517546,0.5612003651\\Version=ES64L-G16RevB.01\State=1-A'\HF=-
 191.3363727\RMSD=5.381e-09\RMSF=1.322e-04\Dipole=-0.1717268,0.,-0.3429
 587\Quadrupole=1.8317897,-0.6694174,-1.1623723,0.,0.6150388,0.\PG=CS [
 SG(C3H4O1),X(H2)]\\@


 I DO NOT DEFINE TIME, SPACE, PLACE, AND MOTION, AS BEING WELL KNOWN TO ALL.
                                            -- NEWTON (1642-1726), PRINCIPIA
 Job cpu time:       0 days  0 hours  0 minutes  5.1 seconds.
 Elapsed time:       0 days  0 hours  0 minutes  5.0 seconds.
 File lengths (MBytes):  RWF=      6 Int=      0 D2E=      0 Chk=      1 Scr=      1
 Normal termination of Gaussian 16 at Mon Oct  4 00:34:11 2021.
