 Entering Gaussian System, Link 0=/home/apl/G16/g16/g16
 Initial command:
 /home/apl/G16/g16/l1.exe "/home/nakano/results/FrontierOrbital/4/Gau-74043.inp" -scrdir="/home/nakano/results/FrontierOrbital/4/"
 Entering Link 1 = /home/apl/G16/g16/l1.exe PID=     74044.

 Copyright (c) 1988-2017, Gaussian, Inc.  All Rights Reserved.

 This is part of the Gaussian(R) 16 program.  It is based on
 the Gaussian(R) 09 system (copyright 2009, Gaussian, Inc.),
 the Gaussian(R) 03 system (copyright 2003, Gaussian, Inc.),
 the Gaussian(R) 98 system (copyright 1998, Gaussian, Inc.),
 the Gaussian(R) 94 system (copyright 1995, Gaussian, Inc.),
 the Gaussian 92(TM) system (copyright 1992, Gaussian, Inc.),
 the Gaussian 90(TM) system (copyright 1990, Gaussian, Inc.),
 the Gaussian 88(TM) system (copyright 1988, Gaussian, Inc.),
 the Gaussian 86(TM) system (copyright 1986, Carnegie Mellon
 University), and the Gaussian 82(TM) system (copyright 1983,
 Carnegie Mellon University). Gaussian is a federally registered
 trademark of Gaussian, Inc.

 This software contains proprietary and confidential information,
 including trade secrets, belonging to Gaussian, Inc.

 This software is provided under written license and may be
 used, copied, transmitted, or stored only in accord with that
 written license.

 The following legend is applicable only to US Government
 contracts under FAR:

                    RESTRICTED RIGHTS LEGEND

 Use, reproduction and disclosure by the US Government is
 subject to restrictions as set forth in subparagraphs (a)
 and (c) of the Commercial Computer Software - Restricted
 Rights clause in FAR 52.227-19.

 Gaussian, Inc.
 340 Quinnipiac St., Bldg. 40, Wallingford CT 06492


 ---------------------------------------------------------------
 Warning -- This program may not be used in any manner that
 competes with the business of Gaussian, Inc. or will provide
 assistance to any competitor of Gaussian, Inc.  The licensee
 of this program is prohibited from giving any competitor of
 Gaussian, Inc. access to this program.  By using this program,
 the user acknowledges that Gaussian, Inc. is engaged in the
 business of creating and licensing software in the field of
 computational chemistry and represents and warrants to the
 licensee that it is not a competitor of Gaussian, Inc. and that
 it will not use this program in any manner prohibited above.
 ---------------------------------------------------------------


 Cite this work as:
 Gaussian 16, Revision B.01,
 M. J. Frisch, G. W. Trucks, H. B. Schlegel, G. E. Scuseria,
 M. A. Robb, J. R. Cheeseman, G. Scalmani, V. Barone,
 G. A. Petersson, H. Nakatsuji, X. Li, M. Caricato, A. V. Marenich,
 J. Bloino, B. G. Janesko, R. Gomperts, B. Mennucci, H. P. Hratchian,
 J. V. Ortiz, A. F. Izmaylov, J. L. Sonnenberg, D. Williams-Young,
 F. Ding, F. Lipparini, F. Egidi, J. Goings, B. Peng, A. Petrone,
 T. Henderson, D. Ranasinghe, V. G. Zakrzewski, J. Gao, N. Rega,
 G. Zheng, W. Liang, M. Hada, M. Ehara, K. Toyota, R. Fukuda,
 J. Hasegawa, M. Ishida, T. Nakajima, Y. Honda, O. Kitao, H. Nakai,
 T. Vreven, K. Throssell, J. A. Montgomery, Jr., J. E. Peralta,
 F. Ogliaro, M. J. Bearpark, J. J. Heyd, E. N. Brothers, K. N. Kudin,
 V. N. Staroverov, T. A. Keith, R. Kobayashi, J. Normand,
 K. Raghavachari, A. P. Rendell, J. C. Burant, S. S. Iyengar,
 J. Tomasi, M. Cossi, J. M. Millam, M. Klene, C. Adamo, R. Cammi,
 J. W. Ochterski, R. L. Martin, K. Morokuma, O. Farkas,
 J. B. Foresman, and D. J. Fox, Gaussian, Inc., Wallingford CT, 2016.

 ******************************************
 Gaussian 16:  ES64L-G16RevB.01 20-Dec-2017
                 4-Oct-2021
 ******************************************
 ------------------------
 # hf/sto-6g pop=full opt
 ------------------------
 1/18=20,19=15,38=1/1,3;
 2/9=110,12=2,17=6,18=5,40=1/2;
 3/6=6,11=9,25=1,30=1,71=1/1,2,3;
 4//1;
 5/5=2,38=5/2;
 6/7=3,28=1/1;
 7//1,2,3,16;
 1/18=20,19=15/3(2);
 2/9=110/2;
 99//99;
 2/9=110/2;
 3/6=6,11=9,25=1,30=1,71=1/1,2,3;
 4/5=5,16=3,69=1/1;
 5/5=2,38=5/2;
 7//1,2,3,16;
 1/18=20,19=15/3(-5);
 2/9=110/2;
 6/7=3,19=2,28=1/1;
 99/9=1/99;
 ------------------------
 CH2CHCHO molecule : Opt.
 ------------------------
 Symbolic Z-matrix:
 Charge =  0 Multiplicity = 1
 C1
 C2                   1     1.35
 H3                   1     1.1      2     120.
 H4                   1     1.1      2     120.     3     180.     0
 H5                   2     1.1      1     120.     3     0.       0
 C6                   2     1.45     1     120.     3     180.     0
 O7                   6     1.2      2     125.     1     180.     0
 H8                   6     1.1      7     110.     2     180.     0


 GradGradGradGradGradGradGradGradGradGradGradGradGradGradGradGradGradGrad
 Berny optimization.
 Initialization pass.
                           ----------------------------
                           !    Initial Parameters    !
                           ! (Angstroms and Degrees)  !
 --------------------------                            --------------------------
 ! Name  Definition              Value          Derivative Info.                !
 --------------------------------------------------------------------------------
 ! R1    R(1,2)                  1.35           estimate D2E/DX2                !
 ! R2    R(1,3)                  1.1            estimate D2E/DX2                !
 ! R3    R(1,4)                  1.1            estimate D2E/DX2                !
 ! R4    R(2,5)                  1.1            estimate D2E/DX2                !
 ! R5    R(2,6)                  1.45           estimate D2E/DX2                !
 ! R6    R(6,7)                  1.2            estimate D2E/DX2                !
 ! R7    R(6,8)                  1.1            estimate D2E/DX2                !
 ! A1    A(2,1,3)              120.0            estimate D2E/DX2                !
 ! A2    A(2,1,4)              120.0            estimate D2E/DX2                !
 ! A3    A(3,1,4)              120.0            estimate D2E/DX2                !
 ! A4    A(1,2,5)              120.0            estimate D2E/DX2                !
 ! A5    A(1,2,6)              120.0            estimate D2E/DX2                !
 ! A6    A(5,2,6)              120.0            estimate D2E/DX2                !
 ! A7    A(2,6,7)              125.0            estimate D2E/DX2                !
 ! A8    A(2,6,8)              125.0            estimate D2E/DX2                !
 ! A9    A(7,6,8)              110.0            estimate D2E/DX2                !
 ! D1    D(3,1,2,5)              0.0            estimate D2E/DX2                !
 ! D2    D(3,1,2,6)            180.0            estimate D2E/DX2                !
 ! D3    D(4,1,2,5)            180.0            estimate D2E/DX2                !
 ! D4    D(4,1,2,6)              0.0            estimate D2E/DX2                !
 ! D5    D(1,2,6,7)            180.0            estimate D2E/DX2                !
 ! D6    D(1,2,6,8)              0.0            estimate D2E/DX2                !
 ! D7    D(5,2,6,7)              0.0            estimate D2E/DX2                !
 ! D8    D(5,2,6,8)            180.0            estimate D2E/DX2                !
 --------------------------------------------------------------------------------
 Trust Radius=3.00D-01 FncErr=1.00D-07 GrdErr=1.00D-07 EigMax=2.50D+02 EigMin=1.00D-04
 Number of steps in this run=     34 maximum allowed number of steps=    100.
 GradGradGradGradGradGradGradGradGradGradGradGradGradGradGradGradGradGrad

                          Input orientation:
 ---------------------------------------------------------------------
 Center     Atomic      Atomic             Coordinates (Angstroms)
 Number     Number       Type             X           Y           Z
 ---------------------------------------------------------------------
      1          6           0        0.000000    0.000000    0.000000
      2          6           0        0.000000    0.000000    1.350000
      3          1           0        0.952628    0.000000   -0.550000
      4          1           0       -0.952628    0.000000   -0.550000
      5          1           0        0.952628    0.000000    1.900000
      6          6           0       -1.255737    0.000000    2.075000
      7          8           0       -1.360324    0.000000    3.270434
      8          1           0       -2.252675    0.000000    1.610120
 ---------------------------------------------------------------------
                    Distance matrix (angstroms):
                    1          2          3          4          5
     1  C    0.000000
     2  C    1.350000   0.000000
     3  H    1.100000   2.125441   0.000000
     4  H    1.100000   2.125441   1.905256   0.000000
     5  H    2.125441   1.100000   2.450000   3.103627   0.000000
     6  C    2.425387   1.450000   3.430379   2.642442   2.215288
     7  O    3.542064   2.353412   4.466034   3.842126   2.688463
     8  H    2.768941   2.267644   3.865241   2.521159   3.218385
                    6          7          8
     6  C    0.000000
     7  O    1.200000   0.000000
     8  H    1.100000   1.884923   0.000000
 Stoichiometry    C3H4O
 Framework group  CS[SG(C3H4O)]
 Deg. of freedom    13
 Full point group                 CS      NOp   2
 Largest Abelian subgroup         CS      NOp   2
 Largest concise Abelian subgroup C1      NOp   1
                         Standard orientation:
 ---------------------------------------------------------------------
 Center     Atomic      Atomic             Coordinates (Angstroms)
 Number     Number       Type             X           Y           Z
 ---------------------------------------------------------------------
      1          6           0        1.236873    1.258315    0.000000
      2          6           0        0.000000    0.717347    0.000000
      3          1           0        1.359050    2.351509    0.000000
      4          1           0        2.122518    0.605909    0.000000
      5          1           0       -0.885645    1.369753    0.000000
      6          6           0       -0.161052   -0.723681    0.000000
      7          8           0       -1.214401   -1.298533    0.000000
      8          1           0        0.664362   -1.450793    0.000000
 ---------------------------------------------------------------------
 Rotational constants (GHZ):          47.5785957           4.7087294           4.2846853
 Standard basis: STO-6G (5D, 7F)
 There are    20 symmetry adapted cartesian basis functions of A'  symmetry.
 There are     4 symmetry adapted cartesian basis functions of A"  symmetry.
 There are    20 symmetry adapted basis functions of A'  symmetry.
 There are     4 symmetry adapted basis functions of A"  symmetry.
    24 basis functions,   144 primitive gaussians,    24 cartesian basis functions
    15 alpha electrons       15 beta electrons
       nuclear repulsion energy       103.4156415711 Hartrees.
 NAtoms=    8 NActive=    8 NUniq=    8 SFac= 1.00D+00 NAtFMM=   60 NAOKFM=F Big=F
 Integral buffers will be    131072 words long.
 Raffenetti 1 integral format.
 Two-electron integral symmetry is turned on.
 One-electron integrals computed using PRISM.
 NBasis=    24 RedAO= T EigKep=  1.95D-01  NBF=    20     4
 NBsUse=    24 1.00D-06 EigRej= -1.00D+00 NBFU=    20     4
 ExpMin= 1.00D-01 ExpMax= 1.36D+03 ExpMxC= 2.49D+02 IAcc=3 IRadAn=         5 AccDes= 0.00D+00
 Harris functional with IExCor=  205 and IRadAn=       5 diagonalized for initial guess.
 HarFok:  IExCor=  205 AccDes= 0.00D+00 IRadAn=         5 IDoV= 1 UseB2=F ITyADJ=14
 ICtDFT=  3500011 ScaDFX=  1.000000  1.000000  1.000000  1.000000
 FoFCou: FMM=F IPFlag=           0 FMFlag=      100000 FMFlg1=           0
         NFxFlg=           0 DoJE=T BraDBF=F KetDBF=T FulRan=T
         wScrn=  0.000000 ICntrl=       500 IOpCl=  0 I1Cent=   200000004 NGrid=           0
         NMat0=    1 NMatS0=      1 NMatT0=    0 NMatD0=    1 NMtDS0=    0 NMtDT0=    0
 Petite list used in FoFCou.
 Initial guess orbital symmetries:
       Occupied  (A') (A') (A') (A') (A') (A') (A') (A') (A') (A')
                 (A') (A') (A") (A") (A')
       Virtual   (A") (A") (A') (A') (A') (A') (A') (A') (A')
 The electronic state of the initial guess is 1-A'.
 Keep R1 ints in memory in symmetry-blocked form, NReq=881588.
 Requested convergence on RMS density matrix=1.00D-08 within 128 cycles.
 Requested convergence on MAX density matrix=1.00D-06.
 Requested convergence on             energy=1.00D-06.
 No special actions if energy rises.
 SCF Done:  E(RHF) =  -190.122026031     A.U. after   12 cycles
            NFock= 12  Conv=0.42D-08     -V/T= 2.0001

 **********************************************************************

            Population analysis using the SCF Density.

 **********************************************************************

 Orbital symmetries:
       Occupied  (A') (A') (A') (A') (A') (A') (A') (A') (A') (A')
                 (A') (A') (A") (A') (A")
       Virtual   (A") (A") (A') (A') (A') (A') (A') (A') (A')
 The electronic state is 1-A'.
 Alpha  occ. eigenvalues --  -20.54136 -11.27192 -11.20124 -11.19677  -1.34325
 Alpha  occ. eigenvalues --   -1.01999  -0.81771  -0.73132  -0.62128  -0.59180
 Alpha  occ. eigenvalues --   -0.50652  -0.50340  -0.47492  -0.34058  -0.32069
 Alpha virt. eigenvalues --    0.21443   0.39282   0.57932   0.61959   0.63605
 Alpha virt. eigenvalues --    0.75631   0.85941   0.94345   1.04121
     Molecular Orbital Coefficients:
                           1         2         3         4         5
                           O         O         O         O         O
     Eigenvalues --   -20.54136 -11.27192 -11.20124 -11.19677  -1.34325
   1 1   C  1S          0.00000  -0.00019   0.98915  -0.11114  -0.00420
   2        2S          0.00008  -0.00003   0.02181  -0.00734   0.00966
   3        2PX        -0.00005   0.00009  -0.00076   0.00295  -0.00472
   4        2PY         0.00002   0.00001  -0.00035   0.00137  -0.00253
   5        2PZ         0.00000   0.00000   0.00000   0.00000   0.00000
   6 2   C  1S         -0.00001   0.00193   0.11142   0.98901  -0.02059
   7        2S          0.00009  -0.00374  -0.00219   0.02352   0.05208
   8        2PX        -0.00037   0.00050  -0.00270   0.00142  -0.00228
   9        2PY         0.00001   0.00267  -0.00124  -0.00003  -0.03007
  10        2PZ         0.00000   0.00000   0.00000   0.00000   0.00000
  11 3   H  1S         -0.00002  -0.00002  -0.00422   0.00043   0.00097
  12 4   H  1S         -0.00003  -0.00012  -0.00423   0.00046   0.00149
  13 5   H  1S         -0.00012  -0.00007  -0.00051  -0.00422   0.00693
  14 6   C  1S          0.00033   0.99545   0.00007  -0.00142  -0.12322
  15        2S         -0.00486   0.02145  -0.00045  -0.00421   0.28381
  16        2PX         0.00371  -0.00096  -0.00009  -0.00031  -0.13800
  17        2PY         0.00207  -0.00044  -0.00035  -0.00289  -0.07296
  18        2PZ         0.00000   0.00000   0.00000   0.00000   0.00000
  19 7   O  1S          0.99672  -0.00002   0.00000  -0.00001  -0.20572
  20        2S          0.01590  -0.00404  -0.00002   0.00010   0.75098
  21        2PX         0.00374  -0.00106  -0.00001   0.00001   0.15475
  22        2PY         0.00207  -0.00068   0.00000   0.00014   0.08500
  23        2PZ         0.00000   0.00000   0.00000   0.00000   0.00000
  24 8   H  1S          0.00022  -0.00428  -0.00005  -0.00003   0.03153
                           6         7         8         9        10
                           O         O         O         O         O
     Eigenvalues --    -1.01999  -0.81771  -0.73132  -0.62128  -0.59180
   1 1   C  1S         -0.15128  -0.14190  -0.05073  -0.01551   0.01347
   2        2S          0.41842   0.43656   0.16346   0.06306  -0.06705
   3        2PX        -0.10129   0.05585   0.16233   0.25453  -0.24296
   4        2PY        -0.05316   0.06797  -0.03484  -0.20392  -0.34955
   5        2PZ         0.00000   0.00000   0.00000   0.00000   0.00000
   6 2   C  1S         -0.17375   0.06171   0.09366   0.02386  -0.03961
   7        2S          0.47537  -0.19043  -0.29614  -0.08804   0.12198
   8        2PX         0.09396   0.14477   0.16089   0.03587   0.30236
   9        2PY         0.00210   0.20852  -0.12656  -0.32028   0.03987
  10        2PZ         0.00000   0.00000   0.00000   0.00000   0.00000
  11 3   H  1S          0.09055   0.19774   0.05867  -0.10172  -0.33360
  12 4   H  1S          0.09673   0.15828   0.17004   0.27095  -0.02425
  13 5   H  1S          0.10257  -0.06336  -0.24700  -0.19987  -0.11002
  14 6   C  1S         -0.05817   0.12726  -0.09173  -0.00074   0.05543
  15        2S          0.16898  -0.40567   0.30358   0.00017  -0.19216
  16        2PX         0.06972  -0.11191   0.21306  -0.12668   0.21430
  17        2PY         0.12918  -0.14256  -0.21256   0.35528  -0.02975
  18        2PZ         0.00000   0.00000   0.00000   0.00000   0.00000
  19 7   O  1S          0.04225  -0.07381   0.04750  -0.01469  -0.06615
  20        2S         -0.17227   0.33528  -0.22877   0.08187   0.35896
  21        2PX        -0.00206  -0.08212   0.19165  -0.20557  -0.24206
  22        2PY         0.01867  -0.08197  -0.09531   0.24826  -0.30768
  23        2PZ         0.00000   0.00000   0.00000   0.00000   0.00000
  24 8   H  1S          0.03804  -0.13955   0.29124  -0.21140   0.04773
                          11        12        13        14        15
                           O         O         O         O         O
     Eigenvalues --    -0.50652  -0.50340  -0.47492  -0.34058  -0.32069
   1 1   C  1S         -0.02288  -0.00685   0.00000  -0.00690   0.00000
   2        2S          0.06612   0.02188   0.00000   0.02183   0.00000
   3        2PX        -0.36979   0.06568   0.00000  -0.05450   0.00000
   4        2PY         0.04691  -0.36767   0.00000  -0.06743   0.00000
   5        2PZ         0.00000   0.00000   0.19667   0.00000   0.58875
   6 2   C  1S          0.00639  -0.01086   0.00000   0.03524   0.00000
   7        2S         -0.04482   0.04400   0.00000  -0.16474   0.00000
   8        2PX         0.40048  -0.03604   0.00000   0.02573   0.00000
   9        2PY        -0.03446   0.22863   0.00000   0.28851   0.00000
  10        2PZ         0.00000   0.00000   0.30743   0.00000   0.55844
  11 3   H  1S          0.03828  -0.33440   0.00000  -0.08671   0.00000
  12 4   H  1S         -0.28801   0.26763   0.00000   0.04526   0.00000
  13 5   H  1S         -0.34958   0.17485   0.00000   0.10081   0.00000
  14 6   C  1S         -0.02303   0.01574   0.00000   0.00036   0.00000
  15        2S          0.08149  -0.07216   0.00000   0.00537   0.00000
  16        2PX        -0.24764  -0.27228   0.00000   0.09155   0.00000
  17        2PY         0.02153  -0.24269   0.00000  -0.15288   0.00000
  18        2PZ         0.00000   0.00000   0.57384   0.00000  -0.20539
  19 7   O  1S          0.03747   0.04642   0.00000   0.00222   0.00000
  20        2S         -0.22172  -0.28062   0.00000  -0.01344   0.00000
  21        2PX         0.25061   0.45701   0.00000  -0.44864   0.00000
  22        2PY         0.31725   0.09124   0.00000   0.74916   0.00000
  23        2PZ         0.00000   0.00000   0.54411   0.00000  -0.40880
  24 8   H  1S         -0.16557  -0.10791   0.00000   0.35624   0.00000
                          16        17        18        19        20
                           V         V         V         V         V
     Eigenvalues --     0.21443   0.39282   0.57932   0.61959   0.63605
   1 1   C  1S          0.00000   0.00000   0.02131   0.01669  -0.18520
   2        2S          0.00000   0.00000  -0.16883  -0.12818   1.25872
   3        2PX         0.00000   0.00000   0.13616  -0.24948   0.46641
   4        2PY         0.00000   0.00000  -0.35444   0.55499   0.18899
   5        2PZ         0.66986   0.47295   0.00000   0.00000   0.00000
   6 2   C  1S          0.00000   0.00000   0.09617   0.05787   0.04621
   7        2S          0.00000   0.00000  -0.62561  -0.36832  -0.26395
   8        2PX         0.00000   0.00000   0.52246   0.01443  -0.10967
   9        2PY         0.00000   0.00000  -0.15186   0.65111  -0.03378
  10        2PZ        -0.46972  -0.68714   0.00000   0.00000   0.00000
  11 3   H  1S          0.00000   0.00000   0.41466  -0.46622  -0.86782
  12 4   H  1S          0.00000   0.00000  -0.24301   0.60219  -0.88287
  13 5   H  1S          0.00000   0.00000   0.89036  -0.16368   0.10972
  14 6   C  1S          0.00000   0.00000  -0.06182  -0.14684  -0.03363
  15        2S          0.00000   0.00000   0.40301   0.99345   0.21891
  16        2PX         0.00000   0.00000   0.50604   0.31505   0.03978
  17        2PY         0.00000   0.00000  -0.09095   0.28000  -0.02093
  18        2PZ        -0.45835   0.71365   0.00000   0.00000   0.00000
  19 7   O  1S          0.00000   0.00000  -0.01463   0.01362   0.00855
  20        2S          0.00000   0.00000   0.12923  -0.07686  -0.06104
  21        2PX         0.00000   0.00000   0.08565  -0.09107  -0.07086
  22        2PY         0.00000   0.00000   0.14451  -0.10379  -0.03488
  23        2PZ         0.56312  -0.51902   0.00000   0.00000   0.00000
  24 8   H  1S          0.00000   0.00000  -0.66251  -0.60614  -0.11558
                          21        22        23        24
                           V         V         V         V
     Eigenvalues --     0.75631   0.85941   0.94345   1.04121
   1 1   C  1S          0.05488  -0.03292   0.05748  -0.06391
   2        2S         -0.37840   0.26525  -0.48348   0.55815
   3        2PX         0.55686  -0.15386   0.82959  -0.46801
   4        2PY         0.07585  -0.84827  -0.23735  -0.40163
   5        2PZ         0.00000   0.00000   0.00000   0.00000
   6 2   C  1S         -0.16774   0.04313  -0.02718   0.05315
   7        2S          1.22824  -0.31918   0.23949  -0.47262
   8        2PX        -0.07792  -0.59511   0.46814  -0.86564
   9        2PY         0.08611   0.36506   0.95986   0.09971
  10        2PZ         0.00000   0.00000   0.00000   0.00000
  11 3   H  1S          0.06609   0.56069   0.26864   0.11528
  12 4   H  1S         -0.14435  -0.36875  -0.42241  -0.10801
  13 5   H  1S         -0.62472  -0.41223  -0.21494  -0.33856
  14 6   C  1S          0.01173  -0.12249  -0.00469   0.06496
  15        2S         -0.05649   0.90307   0.05063  -0.49441
  16        2PX         0.54173  -0.32314  -0.03403   0.87340
  17        2PY        -0.72540  -0.20632   0.84620   0.49302
  18        2PZ         0.00000   0.00000   0.00000   0.00000
  19 7   O  1S         -0.01623   0.06333  -0.02189  -0.08093
  20        2S          0.12543  -0.51085   0.19260   0.70674
  21        2PX         0.00062  -0.49261   0.25502   0.63281
  22        2PY         0.27436  -0.28250  -0.05142   0.32768
  23        2PZ         0.00000   0.00000   0.00000   0.00000
  24 8   H  1S         -0.67011  -0.30473   0.40906  -0.02615
     Density Matrix:
                           1         2         3         4         5
   1 1   C  1S          2.07485
   2        2S         -0.22977   0.81360
   3        2PX        -0.00147   0.03318   0.61521
   4        2PY         0.00009   0.01170  -0.00252   0.62873
   5        2PZ         0.00000   0.00000   0.00000   0.00000   0.77061
   6 2   C  1S          0.02387  -0.06073   0.09975   0.04487   0.00000
   7        2S         -0.06000   0.09664  -0.26128  -0.11970   0.00000
   8        2PX        -0.10263   0.27394  -0.38298  -0.16691   0.00000
   9        2PY        -0.04370   0.11411  -0.17628  -0.07042   0.00000
  10        2PZ         0.00000   0.00000   0.00000   0.00000   0.77848
  11 3   H  1S         -0.09972   0.28597   0.07032   0.54905   0.00000
  12 4   H  1S         -0.10009   0.28760   0.44623  -0.32410   0.00000
  13 5   H  1S          0.02732  -0.09469   0.11411  -0.01889   0.00000
  14 6   C  1S         -0.00574   0.02017  -0.01070  -0.02172   0.00000
  15        2S          0.02286  -0.07437   0.03944   0.09853   0.00000
  16        2PX         0.01360  -0.05775   0.01262   0.02971   0.00000
  17        2PY         0.01614  -0.05290   0.05374   0.05906   0.00000
  18        2PZ         0.00000   0.00000   0.00000   0.00000  -0.01614
  19 7   O  1S          0.00138  -0.00328   0.00327   0.00457   0.00000
  20        2S         -0.00488   0.00830  -0.01318  -0.02095   0.00000
  21        2PX        -0.00852   0.03232  -0.01142  -0.02406   0.00000
  22        2PY        -0.01556   0.06576  -0.07311  -0.03143   0.00000
  23        2PZ         0.00000   0.00000   0.00000   0.00000  -0.26735
  24 8   H  1S          0.01018  -0.03831   0.00959   0.02515   0.00000
                           6         7         8         9        10
   6 2   C  1S          2.07459
   7        2S         -0.22730   0.81389
   8        2PX         0.00313  -0.04136   0.62149
   9        2PY        -0.00131  -0.01133  -0.00791   0.60256
  10        2PZ         0.00000   0.00000   0.00000   0.00000   0.81273
  11 3   H  1S          0.02701  -0.09159  -0.06556  -0.09908   0.00000
  12 4   H  1S          0.02621  -0.08800  -0.12413   0.01614   0.00000
  13 5   H  1S         -0.10047   0.29033  -0.44688   0.31758   0.00000
  14 6   C  1S          0.01981  -0.05280   0.01185   0.10265   0.00000
  15        2S         -0.05373   0.10223  -0.03473  -0.31321   0.00000
  16        2PX        -0.00691   0.01100  -0.00362  -0.04838   0.00000
  17        2PY        -0.09102   0.25255  -0.05071  -0.43134   0.00000
  18        2PZ         0.00000   0.00000   0.00000   0.00000   0.12344
  19 7   O  1S         -0.00229   0.00534  -0.01223  -0.00618   0.00000
  20        2S          0.00543  -0.00495   0.05255   0.00721   0.00000
  21        2PX        -0.00885   0.07465   0.02036  -0.04687   0.00000
  22        2PY         0.05342  -0.27173   0.06655   0.25348   0.00000
  23        2PZ         0.00000   0.00000   0.00000   0.00000  -0.12203
  24 8   H  1S          0.03420  -0.14303  -0.03249   0.17318   0.00000
                          11        12        13        14        15
  11 3   H  1S          0.58640
  12 4   H  1S         -0.14772   0.58794
  13 5   H  1S         -0.08257   0.11692   0.58121
  14 6   C  1S         -0.02043   0.01586   0.02520   2.07591
  15        2S          0.08808  -0.06731  -0.09885  -0.23316   0.83028
  16        2PX         0.02316  -0.02374   0.02119  -0.01673   0.08284
  17        2PY         0.07997  -0.05482  -0.11764  -0.00776   0.03728
  18        2PZ         0.00000   0.00000   0.00000   0.00000   0.00000
  19 7   O  1S          0.00216  -0.00100   0.00237   0.01133   0.00139
  20        2S         -0.00712   0.00050  -0.01195  -0.00472  -0.17692
  21        2PX        -0.01540  -0.00076  -0.05296  -0.12009   0.33308
  22        2PY        -0.05193   0.02886  -0.00793  -0.07352   0.22806
  23        2PZ         0.00000   0.00000   0.00000   0.00000   0.00000
  24 8   H  1S         -0.00518   0.01531   0.10590  -0.09958   0.29462
                          16        17        18        19        20
  16        2PX         0.57532
  17        2PY        -0.02976   0.59475
  18        2PZ         0.00000   0.00000   0.74296
  19 7   O  1S          0.03877   0.01781   0.00000   2.10681
  20        2S         -0.01042   0.01522   0.00000  -0.45569   2.04463
  21        2PX        -0.44973  -0.28668   0.00000   0.07123  -0.47249
  22        2PY        -0.30753  -0.00865   0.00000   0.04278  -0.28232
  23        2PZ         0.00000   0.00000   0.79240   0.00000   0.00000
  24 8   H  1S          0.43197  -0.29553   0.00000   0.01800  -0.06847
                          21        22        23        24
  21        2PX         1.28246
  22        2PY        -0.37972   1.69978
  23        2PZ         0.00000   0.00000   0.92635
  24 8   H  1S         -0.29330   0.24883   0.00000   0.63939
    Full Mulliken population analysis:
                           1         2         3         4         5
   1 1   C  1S          2.07485
   2        2S         -0.05589   0.81360
   3        2PX         0.00000   0.00000   0.61521
   4        2PY         0.00000   0.00000   0.00000   0.62873
   5        2PZ         0.00000   0.00000   0.00000   0.00000   0.77061
   6 2   C  1S          0.00000  -0.00263  -0.00670  -0.00132   0.00000
   7        2S         -0.00259   0.03791   0.09661   0.01936   0.00000
   8        2PX        -0.00689   0.10129   0.09251   0.03462   0.00000
   9        2PY        -0.00128   0.01845   0.03656  -0.00999   0.00000
  10        2PZ         0.00000   0.00000   0.00000   0.00000   0.18111
  11 3   H  1S         -0.00629   0.13888   0.00362   0.25310   0.00000
  12 4   H  1S         -0.00631   0.13967   0.16665   0.08916   0.00000
  13 5   H  1S          0.00016  -0.01007  -0.01469  -0.00013   0.00000
  14 6   C  1S          0.00000   0.00005   0.00003   0.00008   0.00000
  15        2S          0.00006  -0.00495  -0.00201  -0.00714   0.00000
  16        2PX         0.00003  -0.00295  -0.00026  -0.00194   0.00000
  17        2PY         0.00006  -0.00383  -0.00351  -0.00398   0.00000
  18        2PZ         0.00000   0.00000   0.00000   0.00000  -0.00040
  19 7   O  1S          0.00000   0.00000   0.00000   0.00000   0.00000
  20        2S          0.00000   0.00002   0.00003   0.00005   0.00000
  21        2PX         0.00000   0.00006   0.00002   0.00006   0.00000
  22        2PY         0.00000   0.00013   0.00019   0.00007   0.00000
  23        2PZ         0.00000   0.00000   0.00000   0.00000  -0.00013
  24 8   H  1S          0.00001  -0.00127  -0.00008  -0.00105   0.00000
                           6         7         8         9        10
   6 2   C  1S          2.07459
   7        2S         -0.05529   0.81389
   8        2PX         0.00000   0.00000   0.62149
   9        2PY         0.00000   0.00000   0.00000   0.60256
  10        2PZ         0.00000   0.00000   0.00000   0.00000   0.81273
  11 3   H  1S          0.00016  -0.00974  -0.00540  -0.00982   0.00000
  12 4   H  1S          0.00016  -0.00936  -0.01598  -0.00011   0.00000
  13 5   H  1S         -0.00634   0.14099   0.16689   0.08737   0.00000
  14 6   C  1S          0.00000  -0.00179  -0.00008  -0.00588   0.00000
  15        2S         -0.00182   0.03504   0.00142   0.11421   0.00000
  16        2PX        -0.00004   0.00045  -0.00068   0.00279   0.00000
  17        2PY        -0.00521   0.09209   0.00293   0.13931   0.00000
  18        2PZ         0.00000   0.00000   0.00000   0.00000   0.02391
  19 7   O  1S          0.00000   0.00001   0.00002   0.00002   0.00000
  20        2S          0.00000  -0.00020  -0.00167  -0.00038   0.00000
  21        2PX        -0.00001   0.00186  -0.00018   0.00176   0.00000
  22        2PY         0.00005  -0.01125  -0.00249  -0.01230   0.00000
  23        2PZ         0.00000   0.00000   0.00000   0.00000  -0.00167
  24 8   H  1S          0.00015  -0.01189  -0.00097  -0.01694   0.00000
                          11        12        13        14        15
  11 3   H  1S          0.58640
  12 4   H  1S         -0.02059   0.58794
  13 5   H  1S         -0.00470   0.00210   0.58121
  14 6   C  1S         -0.00001   0.00003   0.00012   2.07591
  15        2S          0.00079  -0.00284  -0.00900  -0.05671   0.83028
  16        2PX         0.00013  -0.00110  -0.00077   0.00000   0.00000
  17        2PY         0.00087  -0.00148  -0.01239   0.00000   0.00000
  18        2PZ         0.00000   0.00000   0.00000   0.00000   0.00000
  19 7   O  1S          0.00000   0.00000   0.00000   0.00000   0.00005
  20        2S          0.00000   0.00000  -0.00023  -0.00018  -0.06606
  21        2PX         0.00000   0.00000  -0.00014  -0.00686   0.09487
  22        2PY        -0.00002   0.00003  -0.00017  -0.00229   0.03545
  23        2PZ         0.00000   0.00000   0.00000   0.00000   0.00000
  24 8   H  1S         -0.00002   0.00077   0.00154  -0.00628   0.14308
                          16        17        18        19        20
  16        2PX         0.57532
  17        2PY         0.00000   0.59475
  18        2PZ         0.00000   0.00000   0.74296
  19 7   O  1S         -0.00227  -0.00057   0.00000   2.10681
  20        2S          0.00408  -0.00325   0.00000  -0.10533   2.04463
  21        2PX         0.08698   0.06399   0.00000   0.00000   0.00000
  22        2PY         0.06865  -0.00081   0.00000   0.00000   0.00000
  23        2PZ         0.00000   0.00000   0.17085   0.00000   0.00000
  24 8   H  1S          0.15035   0.09061   0.00000   0.00012  -0.00680
                          21        22        23        24
  21        2PX         1.28246
  22        2PY         0.00000   1.69978
  23        2PZ         0.00000   0.00000   0.92635
  24 8   H  1S         -0.03014  -0.00207   0.00000   0.63939
     Gross orbital populations:
                           1
   1 1   C  1S          1.99592
   2        2S          1.16848
   3        2PX         0.98417
   4        2PY         0.99967
   5        2PZ         0.95118
   6 2   C  1S          1.99575
   7        2S          1.13609
   8        2PX         0.98682
   9        2PY         0.94632
  10        2PZ         1.01609
  11 3   H  1S          0.92736
  12 4   H  1S          0.92873
  13 5   H  1S          0.92176
  14 6   C  1S          1.99613
  15        2S          1.10472
  16        2PX         0.87876
  17        2PY         0.94957
  18        2PZ         0.93732
  19 7   O  1S          1.99887
  20        2S          1.86470
  21        2PX         1.49474
  22        2PY         1.77294
  23        2PZ         1.09541
  24 8   H  1S          0.94849
          Condensed to atoms (all electrons):
               1          2          3          4          5          6
     1  C    4.791237   0.587001   0.389310   0.389164  -0.024726  -0.030680
     2  C    0.587001   4.814683  -0.024805  -0.025293   0.388916   0.396647
     3  H    0.389310  -0.024805   0.586403  -0.020588  -0.004701   0.001787
     4  H    0.389164  -0.025293  -0.020588   0.587938   0.002102  -0.005388
     5  H   -0.024726   0.388916  -0.004701   0.002102   0.581213  -0.022051
     6  C   -0.030680   0.396647   0.001787  -0.005388  -0.022051   4.705799
     7  O    0.000509  -0.026423  -0.000024   0.000025  -0.000537   0.442634
     8  H   -0.002395  -0.029656  -0.000022   0.000772   0.001543   0.377759
               7          8
     1  C    0.000509  -0.002395
     2  C   -0.026423  -0.029656
     3  H   -0.000024  -0.000022
     4  H    0.000025   0.000772
     5  H   -0.000537   0.001543
     6  C    0.442634   0.377759
     7  O    7.849376  -0.038901
     8  H   -0.038901   0.639388
 Mulliken charges:
               1
     1  C   -0.099421
     2  C   -0.081071
     3  H    0.072640
     4  H    0.071268
     5  H    0.078239
     6  C    0.133492
     7  O   -0.226659
     8  H    0.051512
 Sum of Mulliken charges =   0.00000
 Mulliken charges with hydrogens summed into heavy atoms:
               1
     1  C    0.044487
     2  C   -0.002831
     6  C    0.185004
     7  O   -0.226659
 Electronic spatial extent (au):  <R**2>=            291.9604
 Charge=              0.0000 electrons
 Dipole moment (field-independent basis, Debye):
    X=              1.6947    Y=              1.3318    Z=              0.0000  Tot=              2.1554
 Quadrupole moment (field-independent basis, Debye-Ang):
   XX=            -22.8663   YY=            -22.0872   ZZ=            -22.0478
   XY=             -2.2312   XZ=              0.0000   YZ=              0.0000
 Traceless Quadrupole moment (field-independent basis, Debye-Ang):
   XX=             -0.5326   YY=              0.2466   ZZ=              0.2860
   XY=             -2.2312   XZ=              0.0000   YZ=              0.0000
 Octapole moment (field-independent basis, Debye-Ang**2):
  XXX=             -1.2009  YYY=             -0.3715  ZZZ=              0.0000  XYY=              2.2056
  XXY=              1.8536  XXZ=              0.0000  XZZ=             -3.2214  YZZ=             -3.5996
  YYZ=              0.0000  XYZ=              0.0000
 Hexadecapole moment (field-independent basis, Debye-Ang**3):
 XXXX=           -135.0184 YYYY=           -174.7551 ZZZZ=            -16.3803 XXXY=            -55.5942
 XXXZ=              0.0000 YYYX=            -52.3286 YYYZ=              0.0000 ZZZX=              0.0000
 ZZZY=              0.0000 XXYY=            -54.6241 XXZZ=            -25.3006 YYZZ=            -33.4148
 XXYZ=              0.0000 YYXZ=              0.0000 ZZXY=            -16.5588
 N-N= 1.034156415711D+02 E-N=-6.542223442517D+02  KE= 1.901125191091D+02
 Symmetry A'   KE= 1.840048017388D+02
 Symmetry A"   KE= 6.107717370321D+00
 Orbital energies and kinetic energies (alpha):
                                 1                 2
   1         O               -20.541362         29.106688
   2         O               -11.271924         15.902463
   3         O               -11.201241         15.900671
   4         O               -11.196771         15.892991
   5         O                -1.343245          2.563237
   6         O                -1.019989          1.551848
   7         O                -0.817715          1.666718
   8         O                -0.731315          1.258841
   9         O                -0.621283          1.178155
  10         O                -0.591802          1.579313
  11         O                -0.506516          1.493192
  12         O                -0.503404          1.600719
  13         O                -0.474919          1.528939
  14         O                -0.340577          2.307566
  15         O                -0.320692          1.524920
  16         V                 0.214427          2.024238
  17         V                 0.392817          2.262794
  18         V                 0.579318          2.175726
  19         V                 0.619585          2.632567
  20         V                 0.636054          2.568008
  21         V                 0.756306          3.073341
  22         V                 0.859407          3.397317
  23         V                 0.943455          3.164835
  24         V                 1.041215          4.022947
 Total kinetic energy from orbitals= 1.901125191091D+02
 Calling FoFJK, ICntrl=      2127 FMM=F ISym2X=1 I1Cent= 0 IOpClX= 0 NMat=1 NMatS=1 NMatT=0.
 ***** Axes restored to original set *****
 -------------------------------------------------------------------
 Center     Atomic                   Forces (Hartrees/Bohr)
 Number     Number              X              Y              Z
 -------------------------------------------------------------------
      1        6           0.006333792    0.000000000    0.042320924
      2        6           0.041231020    0.000000000   -0.084792195
      3        1          -0.020029027    0.000000000    0.003212886
      4        1           0.019279032    0.000000000    0.004291036
      5        1          -0.019631617    0.000000000   -0.004019116
      6        6          -0.056434993    0.000000000    0.004325074
      7        8           0.015765698    0.000000000    0.070952306
      8        1           0.013486094    0.000000000   -0.036290915
 -------------------------------------------------------------------
 Cartesian Forces:  Max     0.084792195 RMS     0.030214049

 GradGradGradGradGradGradGradGradGradGradGradGradGradGradGradGradGradGrad
 Berny optimization.
 FormGI is forming the generalized inverse of G from B-inverse, IUseBI=4.
 Internal  Forces:  Max     0.069308240 RMS     0.024096216
 Search for a local minimum.
 Step number   1 out of a maximum of   34
 All quantities printed in internal units (Hartrees-Bohrs-Radians)
 Mixed Optimization -- RFO/linear search
 Second derivative matrix not updated -- first step.
 ITU=  0
     Eigenvalues ---    0.01427   0.01427   0.02089   0.02750   0.02750
     Eigenvalues ---    0.16000   0.16000   0.16000   0.16000   0.22000
     Eigenvalues ---    0.22000   0.33682   0.33682   0.33682   0.33682
     Eigenvalues ---    0.38245   0.55021   1.04823
 RFO step:  Lambda=-3.47590632D-02 EMin= 1.42735167D-02
 Linear search not attempted -- first point.
 Maximum step size (   0.300) exceeded in Quadratic search.
    -- Step size scaled by   0.850
 Iteration  1 RMS(Cart)=  0.05908755 RMS(Int)=  0.00377153
 Iteration  2 RMS(Cart)=  0.00365650 RMS(Int)=  0.00000550
 Iteration  3 RMS(Cart)=  0.00000693 RMS(Int)=  0.00000000
 Iteration  4 RMS(Cart)=  0.00000000 RMS(Int)=  0.00000000
 ClnCor:  largest displacement from symmetrization is 6.05D-10 for atom     1.
 Variable       Old X    -DE/DX   Delta X   Delta X   Delta X     New X
                                 (Linear)    (Quad)   (Total)
    R1        2.55113  -0.04982   0.00000  -0.07238  -0.07238   2.47875
    R2        2.07870  -0.01895   0.00000  -0.04334  -0.04334   2.03536
    R3        2.07870  -0.01884   0.00000  -0.04309  -0.04309   2.03561
    R4        2.07870  -0.01901   0.00000  -0.04347  -0.04347   2.03522
    R5        2.74010   0.04303   0.00000   0.08765   0.08765   2.82775
    R6        2.26767   0.06931   0.00000   0.05438   0.05438   2.32205
    R7        2.07870   0.00311   0.00000   0.00712   0.00712   2.08582
    A1        2.09440   0.00592   0.00000   0.02582   0.02582   2.12022
    A2        2.09440   0.00320   0.00000   0.01395   0.01395   2.10835
    A3        2.09440  -0.00912   0.00000  -0.03977  -0.03977   2.05462
    A4        2.09440   0.00055   0.00000   0.00859   0.00859   2.10299
    A5        2.09440   0.01207   0.00000   0.04027   0.04027   2.13466
    A6        2.09440  -0.01262   0.00000  -0.04886  -0.04886   2.04553
    A7        2.18166  -0.00635   0.00000  -0.02119  -0.02119   2.16047
    A8        2.18166  -0.03693   0.00000  -0.16440  -0.16440   2.01726
    A9        1.91986   0.04329   0.00000   0.18559   0.18559   2.10545
    D1        0.00000   0.00000   0.00000   0.00000   0.00000   0.00000
    D2        3.14159   0.00000   0.00000   0.00000   0.00000   3.14159
    D3        3.14159   0.00000   0.00000   0.00000   0.00000   3.14159
    D4        0.00000   0.00000   0.00000   0.00000   0.00000   0.00000
    D5        3.14159   0.00000   0.00000   0.00000   0.00000   3.14159
    D6        0.00000   0.00000   0.00000   0.00000   0.00000   0.00000
    D7        0.00000   0.00000   0.00000   0.00000   0.00000   0.00000
    D8        3.14159   0.00000   0.00000   0.00000   0.00000   3.14159
         Item               Value     Threshold  Converged?
 Maximum Force            0.069308     0.000450     NO
 RMS     Force            0.024096     0.000300     NO
 Maximum Displacement     0.169880     0.001800     NO
 RMS     Displacement     0.059073     0.001200     NO
 Predicted change in Energy=-1.855129D-02
 GradGradGradGradGradGradGradGradGradGradGradGradGradGradGradGradGradGrad

                          Input orientation:
 ---------------------------------------------------------------------
 Center     Atomic      Atomic             Coordinates (Angstroms)
 Number     Number       Type             X           Y           Z
 ---------------------------------------------------------------------
      1          6           0       -0.000607    0.000000    0.013064
      2          6           0       -0.011046    0.000000    1.324722
      3          1           0        0.922392    0.000000   -0.542043
      4          1           0       -0.921466    0.000000   -0.545844
      5          1           0        0.912618    0.000000    1.878583
      6          6           0       -1.282105    0.000000    2.114386
      7          8           0       -1.323588    0.000000    3.342463
      8          1           0       -2.212307    0.000000    1.520223
 ---------------------------------------------------------------------
                    Distance matrix (angstroms):
                    1          2          3          4          5
     1  C    0.000000
     2  C    1.311700   0.000000
     3  H    1.077065   2.087132   0.000000
     4  H    1.077199   2.080356   1.843861   0.000000
     5  H    2.077051   1.076994   2.420646   3.040018   0.000000
     6  C    2.461258   1.496382   3.452017   2.684564   2.207354
     7  O    3.582621   2.407082   4.487071   3.909044   2.672743
     8  H    2.676406   2.209926   3.752237   2.436166   3.145406
                    6          7          8
     6  C    0.000000
     7  O    1.228777   0.000000
     8  H    1.103769   2.027407   0.000000
 Stoichiometry    C3H4O
 Framework group  CS[SG(C3H4O)]
 Deg. of freedom    13
 Full point group                 CS      NOp   2
 Largest Abelian subgroup         CS      NOp   2
 Largest concise Abelian subgroup C1      NOp   1
                         Standard orientation:
 ---------------------------------------------------------------------
 Center     Atomic      Atomic             Coordinates (Angstroms)
 Number     Number       Type             X           Y           Z
 ---------------------------------------------------------------------
      1          6           0        1.159503    1.338728    0.000000
      2          6           0        0.000000    0.725450    0.000000
      3          1           0        1.227214    2.413663    0.000000
      4          1           0        2.079675    0.778691    0.000000
      5          1           0       -0.916984    1.290301    0.000000
      6          6           0       -0.115638   -0.766457    0.000000
      7          8           0       -1.186653   -1.368803    0.000000
      8          1           0        0.840131   -1.318554    0.000000
 ---------------------------------------------------------------------
 Rotational constants (GHZ):          48.3950561           4.5858459           4.1889108
 Standard basis: STO-6G (5D, 7F)
 There are    20 symmetry adapted cartesian basis functions of A'  symmetry.
 There are     4 symmetry adapted cartesian basis functions of A"  symmetry.
 There are    20 symmetry adapted basis functions of A'  symmetry.
 There are     4 symmetry adapted basis functions of A"  symmetry.
    24 basis functions,   144 primitive gaussians,    24 cartesian basis functions
    15 alpha electrons       15 beta electrons
       nuclear repulsion energy       102.6728892812 Hartrees.
 NAtoms=    8 NActive=    8 NUniq=    8 SFac= 1.00D+00 NAtFMM=   60 NAOKFM=F Big=F
 Integral buffers will be    131072 words long.
 Raffenetti 1 integral format.
 Two-electron integral symmetry is turned on.
 One-electron integrals computed using PRISM.
 NBasis=    24 RedAO= T EigKep=  1.80D-01  NBF=    20     4
 NBsUse=    24 1.00D-06 EigRej= -1.00D+00 NBFU=    20     4
 Initial guess from the checkpoint file:  "/home/nakano/results/FrontierOrbital/4/Gau-74044.chk"
 B after Tr=     0.000000    0.000000    0.000000
         Rot=    0.999647    0.000000    0.000000   -0.026572 Ang=  -3.05 deg.
 Initial guess orbital symmetries:
       Occupied  (A') (A') (A') (A') (A') (A') (A') (A') (A') (A')
                 (A') (A') (A") (A') (A")
       Virtual   (A") (A") (A') (A') (A') (A') (A') (A') (A')
 ExpMin= 1.00D-01 ExpMax= 1.36D+03 ExpMxC= 2.49D+02 IAcc=3 IRadAn=         5 AccDes= 0.00D+00
 Harris functional with IExCor=  205 and IRadAn=       5 diagonalized for initial guess.
 HarFok:  IExCor=  205 AccDes= 0.00D+00 IRadAn=         5 IDoV= 1 UseB2=F ITyADJ=14
 ICtDFT=  3500011 ScaDFX=  1.000000  1.000000  1.000000  1.000000
 FoFCou: FMM=F IPFlag=           0 FMFlag=      100000 FMFlg1=           0
         NFxFlg=           0 DoJE=T BraDBF=F KetDBF=T FulRan=T
         wScrn=  0.000000 ICntrl=       500 IOpCl=  0 I1Cent=   200000004 NGrid=           0
         NMat0=    1 NMatS0=      1 NMatT0=    0 NMatD0=    1 NMtDS0=    0 NMtDT0=    0
 Petite list used in FoFCou.
 Keep R1 ints in memory in symmetry-blocked form, NReq=881554.
 Requested convergence on RMS density matrix=1.00D-08 within 128 cycles.
 Requested convergence on MAX density matrix=1.00D-06.
 Requested convergence on             energy=1.00D-06.
 No special actions if energy rises.
 SCF Done:  E(RHF) =  -190.137035879     A.U. after   12 cycles
            NFock= 12  Conv=0.89D-09     -V/T= 2.0004
 Calling FoFJK, ICntrl=      2127 FMM=F ISym2X=1 I1Cent= 0 IOpClX= 0 NMat=1 NMatS=1 NMatT=0.
 ***** Axes restored to original set *****
 -------------------------------------------------------------------
 Center     Atomic                   Forces (Hartrees/Bohr)
 Number     Number              X              Y              Z
 -------------------------------------------------------------------
      1        6          -0.000614525    0.000000000    0.005294266
      2        6           0.005291850    0.000000000   -0.009553331
      3        1          -0.001065519    0.000000000   -0.003042945
      4        1           0.000644242    0.000000000   -0.003785541
      5        1           0.000403202    0.000000000    0.004082703
      6        6          -0.009964948    0.000000000    0.023579677
      7        8           0.000976263    0.000000000   -0.015962379
      8        1           0.004329436    0.000000000   -0.000612450
 -------------------------------------------------------------------
 Cartesian Forces:  Max     0.023579677 RMS     0.006830749

 GradGradGradGradGradGradGradGradGradGradGradGradGradGradGradGradGradGrad
 Berny optimization.
 Using GEDIIS/GDIIS optimizer.
 FormGI is forming the generalized inverse of G from B-inverse, IUseBI=4.
 Internal  Forces:  Max     0.015986238 RMS     0.004142524
 Search for a local minimum.
 Step number   2 out of a maximum of   34
 All quantities printed in internal units (Hartrees-Bohrs-Radians)
 Mixed Optimization -- RFO/linear search
 Update second derivatives using D2CorX and points    1    2
 DE= -1.50D-02 DEPred=-1.86D-02 R= 8.09D-01
 TightC=F SS=  1.41D+00  RLast= 3.00D-01 DXNew= 5.0454D-01 9.0000D-01
 Trust test= 8.09D-01 RLast= 3.00D-01 DXMaxT set to 5.05D-01
 ITU=  1  0
 Use linear search instead of GDIIS.
     Eigenvalues ---    0.01427   0.01427   0.02110   0.02750   0.02750
     Eigenvalues ---    0.15599   0.16000   0.16000   0.17917   0.21967
     Eigenvalues ---    0.22313   0.33599   0.33682   0.33682   0.35064
     Eigenvalues ---    0.37649   0.56850   1.16613
 RFO step:  Lambda=-9.34543292D-04 EMin= 1.42735167D-02
 Quartic linear search produced a step of  0.03684.
 Iteration  1 RMS(Cart)=  0.01421523 RMS(Int)=  0.00012164
 Iteration  2 RMS(Cart)=  0.00013400 RMS(Int)=  0.00000001
 Iteration  3 RMS(Cart)=  0.00000001 RMS(Int)=  0.00000000
 ClnCor:  largest displacement from symmetrization is 5.48D-11 for atom     6.
 Variable       Old X    -DE/DX   Delta X   Delta X   Delta X     New X
                                 (Linear)    (Quad)   (Total)
    R1        2.47875   0.00153  -0.00267   0.00439   0.00173   2.48048
    R2        2.03536   0.00066  -0.00160   0.00297   0.00137   2.03673
    R3        2.03561   0.00141  -0.00159   0.00529   0.00370   2.03931
    R4        2.03522   0.00245  -0.00160   0.00846   0.00686   2.04208
    R5        2.82775   0.00765   0.00323   0.01879   0.02202   2.84977
    R6        2.32205  -0.01599   0.00200  -0.01690  -0.01490   2.30715
    R7        2.08582  -0.00332   0.00026  -0.01034  -0.01008   2.07574
    A1        2.12022   0.00186   0.00095   0.01135   0.01230   2.13251
    A2        2.10835   0.00270   0.00051   0.01707   0.01758   2.12593
    A3        2.05462  -0.00456  -0.00147  -0.02842  -0.02988   2.02474
    A4        2.10299   0.00282   0.00032   0.01885   0.01917   2.12216
    A5        2.13466   0.00106   0.00148   0.00406   0.00554   2.14020
    A6        2.04553  -0.00388  -0.00180  -0.02291  -0.02471   2.02082
    A7        2.16047   0.00130  -0.00078   0.00661   0.00583   2.16630
    A8        2.01726  -0.00362  -0.00606  -0.01810  -0.02415   1.99311
    A9        2.10545   0.00232   0.00684   0.01149   0.01833   2.12378
    D1        0.00000   0.00000   0.00000   0.00000   0.00000   0.00000
    D2        3.14159   0.00000   0.00000   0.00000   0.00000   3.14159
    D3        3.14159   0.00000   0.00000   0.00000   0.00000   3.14159
    D4        0.00000   0.00000   0.00000   0.00000   0.00000   0.00000
    D5        3.14159   0.00000   0.00000   0.00000   0.00000   3.14159
    D6        0.00000   0.00000   0.00000   0.00000   0.00000   0.00000
    D7        0.00000   0.00000   0.00000   0.00000   0.00000   0.00000
    D8        3.14159   0.00000   0.00000   0.00000   0.00000   3.14159
         Item               Value     Threshold  Converged?
 Maximum Force            0.015986     0.000450     NO
 RMS     Force            0.004143     0.000300     NO
 Maximum Displacement     0.034482     0.001800     NO
 RMS     Displacement     0.014247     0.001200     NO
 Predicted change in Energy=-4.812024D-04
 GradGradGradGradGradGradGradGradGradGradGradGradGradGradGradGradGradGrad

                          Input orientation:
 ---------------------------------------------------------------------
 Center     Atomic      Atomic             Coordinates (Angstroms)
 Number     Number       Type             X           Y           Z
 ---------------------------------------------------------------------
      1          6           0       -0.001128    0.000000    0.010881
      2          6           0       -0.010014    0.000000    1.323465
      3          1           0        0.914917    0.000000   -0.557005
      4          1           0       -0.914356    0.000000   -0.564091
      5          1           0        0.906621    0.000000    1.895767
      6          6           0       -1.285588    0.000000    2.127878
      7          8           0       -1.325707    0.000000    3.348112
      8          1           0       -2.200852    0.000000    1.520546
 ---------------------------------------------------------------------
                    Distance matrix (angstroms):
                    1          2          3          4          5
     1  C    0.000000
     2  C    1.312615   0.000000
     3  H    1.077790   2.095630   0.000000
     4  H    1.079157   2.093013   1.829287   0.000000
     5  H    2.092081   1.080625   2.452786   3.060533   0.000000
     6  C    2.476190   1.508035   3.471428   2.717445   2.204463
     7  O    3.590491   2.414589   4.502258   3.933769   2.663192
     8  H    2.667934   2.199684   3.744893   2.449648   3.130044
                    6          7          8
     6  C    0.000000
     7  O    1.220894   0.000000
     8  H    1.098435   2.026296   0.000000
 Stoichiometry    C3H4O
 Framework group  CS[SG(C3H4O)]
 Deg. of freedom    13
 Full point group                 CS      NOp   2
 Largest Abelian subgroup         CS      NOp   2
 Largest concise Abelian subgroup C1      NOp   1
                         Standard orientation:
 ---------------------------------------------------------------------
 Center     Atomic      Atomic             Coordinates (Angstroms)
 Number     Number       Type             X           Y           Z
 ---------------------------------------------------------------------
      1          6           0        1.158644    1.346055    0.000000
      2          6           0        0.000000    0.729207    0.000000
      3          1           0        1.236712    2.421013    0.000000
      4          1           0        2.091682    0.803820    0.000000
      5          1           0       -0.932254    1.275698    0.000000
      6          6           0       -0.120793   -0.773982    0.000000
      7          8           0       -1.183138   -1.375651    0.000000
      8          1           0        0.841856   -1.303005    0.000000
 ---------------------------------------------------------------------
 Rotational constants (GHZ):          48.6120412           4.5551243           4.1648617
 Standard basis: STO-6G (5D, 7F)
 There are    20 symmetry adapted cartesian basis functions of A'  symmetry.
 There are     4 symmetry adapted cartesian basis functions of A"  symmetry.
 There are    20 symmetry adapted basis functions of A'  symmetry.
 There are     4 symmetry adapted basis functions of A"  symmetry.
    24 basis functions,   144 primitive gaussians,    24 cartesian basis functions
    15 alpha electrons       15 beta electrons
       nuclear repulsion energy       102.5610994348 Hartrees.
 NAtoms=    8 NActive=    8 NUniq=    8 SFac= 1.00D+00 NAtFMM=   60 NAOKFM=F Big=F
 Integral buffers will be    131072 words long.
 Raffenetti 1 integral format.
 Two-electron integral symmetry is turned on.
 One-electron integrals computed using PRISM.
 NBasis=    24 RedAO= T EigKep=  1.82D-01  NBF=    20     4
 NBsUse=    24 1.00D-06 EigRej= -1.00D+00 NBFU=    20     4
 Initial guess from the checkpoint file:  "/home/nakano/results/FrontierOrbital/4/Gau-74044.chk"
 B after Tr=     0.000000    0.000000    0.000000
         Rot=    0.999999    0.000000    0.000000   -0.001591 Ang=  -0.18 deg.
 Initial guess orbital symmetries:
       Occupied  (A') (A') (A') (A') (A') (A') (A') (A') (A') (A')
                 (A') (A') (A") (A') (A")
       Virtual   (A") (A") (A') (A') (A') (A') (A') (A') (A')
 ExpMin= 1.00D-01 ExpMax= 1.36D+03 ExpMxC= 2.49D+02 IAcc=3 IRadAn=         5 AccDes= 0.00D+00
 Harris functional with IExCor=  205 and IRadAn=       5 diagonalized for initial guess.
 HarFok:  IExCor=  205 AccDes= 0.00D+00 IRadAn=         5 IDoV= 1 UseB2=F ITyADJ=14
 ICtDFT=  3500011 ScaDFX=  1.000000  1.000000  1.000000  1.000000
 FoFCou: FMM=F IPFlag=           0 FMFlag=      100000 FMFlg1=           0
         NFxFlg=           0 DoJE=T BraDBF=F KetDBF=T FulRan=T
         wScrn=  0.000000 ICntrl=       500 IOpCl=  0 I1Cent=   200000004 NGrid=           0
         NMat0=    1 NMatS0=      1 NMatT0=    0 NMatD0=    1 NMtDS0=    0 NMtDT0=    0
 Petite list used in FoFCou.
 Keep R1 ints in memory in symmetry-blocked form, NReq=881438.
 Requested convergence on RMS density matrix=1.00D-08 within 128 cycles.
 Requested convergence on MAX density matrix=1.00D-06.
 Requested convergence on             energy=1.00D-06.
 No special actions if energy rises.
 SCF Done:  E(RHF) =  -190.137512928     A.U. after   10 cycles
            NFock= 10  Conv=0.70D-08     -V/T= 2.0004
 Calling FoFJK, ICntrl=      2127 FMM=F ISym2X=1 I1Cent= 0 IOpClX= 0 NMat=1 NMatS=1 NMatT=0.
 ***** Axes restored to original set *****
 -------------------------------------------------------------------
 Center     Atomic                   Forces (Hartrees/Bohr)
 Number     Number              X              Y              Z
 -------------------------------------------------------------------
      1        6          -0.000559660    0.000000000    0.003272505
      2        6           0.001799267    0.000000000   -0.002017191
      3        1           0.000176635    0.000000000   -0.000317474
      4        1           0.000133821    0.000000000    0.000140550
      5        1          -0.000427770    0.000000000   -0.000543664
      6        6           0.000157551    0.000000000    0.002651779
      7        8           0.000362548    0.000000000   -0.002589796
      8        1          -0.001642392    0.000000000   -0.000596709
 -------------------------------------------------------------------
 Cartesian Forces:  Max     0.003272505 RMS     0.001223484

 GradGradGradGradGradGradGradGradGradGradGradGradGradGradGradGradGradGrad
 Berny optimization.
 Using GEDIIS/GDIIS optimizer.
 FormGI is forming the generalized inverse of G from B-inverse, IUseBI=4.
 Internal  Forces:  Max     0.003097197 RMS     0.000971575
 Search for a local minimum.
 Step number   3 out of a maximum of   34
 All quantities printed in internal units (Hartrees-Bohrs-Radians)
 Mixed Optimization -- En-DIIS/RFO-DIIS
 Update second derivatives using D2CorX and points    1    2    3
 DE= -4.77D-04 DEPred=-4.81D-04 R= 9.91D-01
 TightC=F SS=  1.41D+00  RLast= 6.47D-02 DXNew= 8.4853D-01 1.9417D-01
 Trust test= 9.91D-01 RLast= 6.47D-02 DXMaxT set to 5.05D-01
 ITU=  1  1  0
 Use linear search instead of GDIIS.
     Eigenvalues ---    0.01427   0.01427   0.02125   0.02750   0.02750
     Eigenvalues ---    0.15171   0.16000   0.16159   0.18214   0.22274
     Eigenvalues ---    0.22902   0.33681   0.33682   0.34221   0.35688
     Eigenvalues ---    0.36126   0.57721   1.11922
 RFO step:  Lambda=-4.58605490D-05 EMin= 1.42735167D-02
 Quartic linear search produced a step of -0.01319.
 Iteration  1 RMS(Cart)=  0.00324950 RMS(Int)=  0.00000384
 Iteration  2 RMS(Cart)=  0.00000375 RMS(Int)=  0.00000000
 Iteration  3 RMS(Cart)=  0.00000000 RMS(Int)=  0.00000000
 ClnCor:  largest displacement from symmetrization is 1.85D-11 for atom     6.
 Variable       Old X    -DE/DX   Delta X   Delta X   Delta X     New X
                                 (Linear)    (Quad)   (Total)
    R1        2.48048  -0.00310  -0.00002  -0.00559  -0.00561   2.47487
    R2        2.03673   0.00032  -0.00002   0.00093   0.00091   2.03764
    R3        2.03931  -0.00019  -0.00005  -0.00041  -0.00046   2.03885
    R4        2.04208  -0.00065  -0.00009  -0.00158  -0.00167   2.04041
    R5        2.84977   0.00066  -0.00029   0.00317   0.00288   2.85265
    R6        2.30715  -0.00260   0.00020  -0.00322  -0.00303   2.30413
    R7        2.07574   0.00170   0.00013   0.00440   0.00453   2.08027
    A1        2.13251   0.00027  -0.00016   0.00245   0.00229   2.13480
    A2        2.12593  -0.00018  -0.00023  -0.00008  -0.00031   2.12562
    A3        2.02474  -0.00009   0.00039  -0.00237  -0.00198   2.02276
    A4        2.12216   0.00018  -0.00025   0.00156   0.00130   2.12346
    A5        2.14020  -0.00084  -0.00007  -0.00338  -0.00345   2.13675
    A6        2.02082   0.00066   0.00033   0.00182   0.00215   2.02297
    A7        2.16630  -0.00071  -0.00008  -0.00288  -0.00296   2.16334
    A8        1.99311   0.00078   0.00032   0.00250   0.00281   1.99592
    A9        2.12378  -0.00007  -0.00024   0.00039   0.00015   2.12393
    D1        0.00000   0.00000   0.00000   0.00000   0.00000   0.00000
    D2        3.14159   0.00000   0.00000   0.00000   0.00000   3.14159
    D3        3.14159   0.00000   0.00000   0.00000   0.00000   3.14159
    D4        0.00000   0.00000   0.00000   0.00000   0.00000   0.00000
    D5        3.14159   0.00000   0.00000   0.00000   0.00000   3.14159
    D6        0.00000   0.00000   0.00000   0.00000   0.00000   0.00000
    D7        0.00000   0.00000   0.00000   0.00000   0.00000   0.00000
    D8        3.14159   0.00000   0.00000   0.00000   0.00000   3.14159
         Item               Value     Threshold  Converged?
 Maximum Force            0.003097     0.000450     NO
 RMS     Force            0.000972     0.000300     NO
 Maximum Displacement     0.009184     0.001800     NO
 RMS     Displacement     0.003251     0.001200     NO
 Predicted change in Energy=-2.301548D-05
 GradGradGradGradGradGradGradGradGradGradGradGradGradGradGradGradGradGrad

                          Input orientation:
 ---------------------------------------------------------------------
 Center     Atomic      Atomic             Coordinates (Angstroms)
 Number     Number       Type             X           Y           Z
 ---------------------------------------------------------------------
      1          6           0       -0.000777    0.000000    0.013927
      2          6           0       -0.007636    0.000000    1.323555
      3          1           0        0.913499    0.000000   -0.557712
      4          1           0       -0.914857    0.000000   -0.559231
      5          1           0        0.908379    0.000000    1.895177
      6          6           0       -1.286039    0.000000    2.126332
      7          8           0       -1.324832    0.000000    3.345007
      8          1           0       -2.203847    0.000000    1.518500
 ---------------------------------------------------------------------
                    Distance matrix (angstroms):
                    1          2          3          4          5
     1  C    0.000000
     2  C    1.309646   0.000000
     3  H    1.078272   2.094673   0.000000
     4  H    1.078912   2.089959   1.828356   0.000000
     5  H    2.089418   1.079739   2.452894   3.057500   0.000000
     6  C    2.472682   1.509559   3.470168   2.711093   2.206560
     7  O    3.584580   2.412731   4.499038   3.925704   2.662562
     8  H    2.667819   2.204846   3.745464   2.445089   3.134938
                    6          7          8
     6  C    0.000000
     7  O    1.219292   0.000000
     8  H    1.100832   2.027016   0.000000
 Stoichiometry    C3H4O
 Framework group  CS[SG(C3H4O)]
 Deg. of freedom    13
 Full point group                 CS      NOp   2
 Largest Abelian subgroup         CS      NOp   2
 Largest concise Abelian subgroup C1      NOp   1
                         Standard orientation:
 ---------------------------------------------------------------------
 Center     Atomic      Atomic             Coordinates (Angstroms)
 Number     Number       Type             X           Y           Z
 ---------------------------------------------------------------------
      1          6           0        1.158072    1.342133    0.000000
      2          6           0        0.000000    0.730543    0.000000
      3          1           0        1.242226    2.417117    0.000000
      4          1           0        2.088915    0.796622    0.000000
      5          1           0       -0.930376    1.278481    0.000000
      6          6           0       -0.120749   -0.774178    0.000000
      7          8           0       -1.183408   -1.372031    0.000000
      8          1           0        0.842564   -1.306963    0.000000
 ---------------------------------------------------------------------
 Rotational constants (GHZ):          48.4572985           4.5678882           4.1743846
 Standard basis: STO-6G (5D, 7F)
 There are    20 symmetry adapted cartesian basis functions of A'  symmetry.
 There are     4 symmetry adapted cartesian basis functions of A"  symmetry.
 There are    20 symmetry adapted basis functions of A'  symmetry.
 There are     4 symmetry adapted basis functions of A"  symmetry.
    24 basis functions,   144 primitive gaussians,    24 cartesian basis functions
    15 alpha electrons       15 beta electrons
       nuclear repulsion energy       102.6408817393 Hartrees.
 NAtoms=    8 NActive=    8 NUniq=    8 SFac= 1.00D+00 NAtFMM=   60 NAOKFM=F Big=F
 Integral buffers will be    131072 words long.
 Raffenetti 1 integral format.
 Two-electron integral symmetry is turned on.
 One-electron integrals computed using PRISM.
 NBasis=    24 RedAO= T EigKep=  1.81D-01  NBF=    20     4
 NBsUse=    24 1.00D-06 EigRej= -1.00D+00 NBFU=    20     4
 Initial guess from the checkpoint file:  "/home/nakano/results/FrontierOrbital/4/Gau-74044.chk"
 B after Tr=     0.000000    0.000000    0.000000
         Rot=    1.000000    0.000000    0.000000    0.000706 Ang=   0.08 deg.
 Initial guess orbital symmetries:
       Occupied  (A') (A') (A') (A') (A') (A') (A') (A') (A') (A')
                 (A') (A') (A") (A') (A")
       Virtual   (A") (A") (A') (A') (A') (A') (A') (A') (A')
 Keep R1 ints in memory in symmetry-blocked form, NReq=881498.
 Requested convergence on RMS density matrix=1.00D-08 within 128 cycles.
 Requested convergence on MAX density matrix=1.00D-06.
 Requested convergence on             energy=1.00D-06.
 No special actions if energy rises.
 SCF Done:  E(RHF) =  -190.137528716     A.U. after   10 cycles
            NFock= 10  Conv=0.12D-08     -V/T= 2.0004
 Calling FoFJK, ICntrl=      2127 FMM=F ISym2X=1 I1Cent= 0 IOpClX= 0 NMat=1 NMatS=1 NMatT=0.
 ***** Axes restored to original set *****
 -------------------------------------------------------------------
 Center     Atomic                   Forces (Hartrees/Bohr)
 Number     Number              X              Y              Z
 -------------------------------------------------------------------
      1        6           0.000216872    0.000000000   -0.001895073
      2        6          -0.000175826    0.000000000    0.001607673
      3        1          -0.000116869    0.000000000    0.000057838
      4        1          -0.000070622    0.000000000    0.000033426
      5        1           0.000036489    0.000000000    0.000107991
      6        6           0.000045679    0.000000000   -0.000673375
      7        8          -0.000174119    0.000000000    0.000595636
      8        1           0.000238396    0.000000000    0.000165884
 -------------------------------------------------------------------
 Cartesian Forces:  Max     0.001895073 RMS     0.000548290

 GradGradGradGradGradGradGradGradGradGradGradGradGradGradGradGradGradGrad
 Berny optimization.
 Using GEDIIS/GDIIS optimizer.
 FormGI is forming the generalized inverse of G from B-inverse, IUseBI=4.
 Internal  Forces:  Max     0.001803938 RMS     0.000399825
 Search for a local minimum.
 Step number   4 out of a maximum of   34
 All quantities printed in internal units (Hartrees-Bohrs-Radians)
 Mixed Optimization -- En-DIIS/RFO-DIIS
 Swapping is turned off.
 Update second derivatives using D2CorX and points    1    2    3    4
 DE= -1.58D-05 DEPred=-2.30D-05 R= 6.86D-01
 TightC=F SS=  1.41D+00  RLast= 1.08D-02 DXNew= 8.4853D-01 3.2514D-02
 Trust test= 6.86D-01 RLast= 1.08D-02 DXMaxT set to 5.05D-01
 ITU=  1  1  1  0
     Eigenvalues ---    0.01427   0.01427   0.02125   0.02750   0.02750
     Eigenvalues ---    0.14947   0.16047   0.16166   0.18120   0.22202
     Eigenvalues ---    0.22613   0.33648   0.33682   0.34147   0.35075
     Eigenvalues ---    0.36148   0.78614   1.12409
 En-DIIS/RFO-DIIS/Sim-DIIS IScMMF=       -3 using points:     4    3
 RFO step:  Lambda=-4.94588374D-06.
 DidBck=F Rises=F RFO-DIIS coefs:    0.84053    0.15947
 Iteration  1 RMS(Cart)=  0.00070632 RMS(Int)=  0.00000020
 Iteration  2 RMS(Cart)=  0.00000019 RMS(Int)=  0.00000000
 ClnCor:  largest displacement from symmetrization is 1.25D-11 for atom     6.
 Variable       Old X    -DE/DX   Delta X   Delta X   Delta X     New X
                                 (Linear)    (Quad)   (Total)
    R1        2.47487   0.00180   0.00089   0.00138   0.00227   2.47715
    R2        2.03764  -0.00013  -0.00015  -0.00016  -0.00030   2.03734
    R3        2.03885   0.00004   0.00007  -0.00006   0.00002   2.03886
    R4        2.04041   0.00009   0.00027  -0.00022   0.00005   2.04046
    R5        2.85265  -0.00005  -0.00046   0.00021  -0.00025   2.85241
    R6        2.30413   0.00060   0.00048   0.00006   0.00055   2.30467
    R7        2.08027  -0.00029  -0.00072   0.00032  -0.00040   2.07987
    A1        2.13480   0.00006  -0.00037   0.00059   0.00023   2.13503
    A2        2.12562  -0.00010   0.00005  -0.00073  -0.00068   2.12494
    A3        2.02276   0.00004   0.00032   0.00013   0.00045   2.02321
    A4        2.12346   0.00009  -0.00021   0.00041   0.00020   2.12366
    A5        2.13675  -0.00002   0.00055  -0.00077  -0.00022   2.13653
    A6        2.02297  -0.00006  -0.00034   0.00036   0.00002   2.02299
    A7        2.16334   0.00023   0.00047   0.00016   0.00063   2.16397
    A8        1.99592  -0.00011  -0.00045   0.00031  -0.00014   1.99578
    A9        2.12393  -0.00012  -0.00002  -0.00047  -0.00050   2.12343
    D1        0.00000   0.00000   0.00000   0.00000   0.00000   0.00000
    D2        3.14159   0.00000   0.00000   0.00000   0.00000   3.14159
    D3        3.14159   0.00000   0.00000   0.00000   0.00000   3.14159
    D4        0.00000   0.00000   0.00000   0.00000   0.00000   0.00000
    D5        3.14159   0.00000   0.00000   0.00000   0.00000   3.14159
    D6        0.00000   0.00000   0.00000   0.00000   0.00000   0.00000
    D7        0.00000   0.00000   0.00000   0.00000   0.00000   0.00000
    D8        3.14159   0.00000   0.00000   0.00000   0.00000   3.14159
         Item               Value     Threshold  Converged?
 Maximum Force            0.001804     0.000450     NO
 RMS     Force            0.000400     0.000300     NO
 Maximum Displacement     0.001669     0.001800     YES
 RMS     Displacement     0.000706     0.001200     YES
 Predicted change in Energy=-2.472959D-06
 GradGradGradGradGradGradGradGradGradGradGradGradGradGradGradGradGradGrad

                          Input orientation:
 ---------------------------------------------------------------------
 Center     Atomic      Atomic             Coordinates (Angstroms)
 Number     Number       Type             X           Y           Z
 ---------------------------------------------------------------------
      1          6           0       -0.000611    0.000000    0.013197
      2          6           0       -0.007430    0.000000    1.324029
      3          1           0        0.913379    0.000000   -0.558596
      4          1           0       -0.915106    0.000000   -0.559314
      5          1           0        0.908512    0.000000    1.895816
      6          6           0       -1.285872    0.000000    2.126500
      7          8           0       -1.325673    0.000000    3.345431
      8          1           0       -2.203306    0.000000    1.518488
 ---------------------------------------------------------------------
                    Distance matrix (angstroms):
                    1          2          3          4          5
     1  C    0.000000
     2  C    1.310850   0.000000
     3  H    1.078112   2.095750   0.000000
     4  H    1.078920   2.090659   1.828485   0.000000
     5  H    2.090636   1.079764   2.454416   3.058307   0.000000
     6  C    2.473448   1.509428   3.470799   2.711285   2.206476
     7  O    3.586024   2.413261   4.500531   3.926270   2.663262
     8  H    2.667914   2.204470   3.745398   2.444733   3.134611
                    6          7          8
     6  C    0.000000
     7  O    1.219581   0.000000
     8  H    1.100620   2.026811   0.000000
 Stoichiometry    C3H4O
 Framework group  CS[SG(C3H4O)]
 Deg. of freedom    13
 Full point group                 CS      NOp   2
 Largest Abelian subgroup         CS      NOp   2
 Largest concise Abelian subgroup C1      NOp   1
                         Standard orientation:
 ---------------------------------------------------------------------
 Center     Atomic      Atomic             Coordinates (Angstroms)
 Number     Number       Type             X           Y           Z
 ---------------------------------------------------------------------
      1          6           0        1.159568    1.341974    0.000000
      2          6           0        0.000000    0.730640    0.000000
      3          1           0        1.244711    2.416718    0.000000
      4          1           0        2.089663    0.795171    0.000000
      5          1           0       -0.930121    1.279060    0.000000
      6          6           0       -0.121469   -0.773893    0.000000
      7          8           0       -1.184290   -1.372045    0.000000
      8          1           0        0.841474   -1.306910    0.000000
 ---------------------------------------------------------------------
 Rotational constants (GHZ):          48.4557478           4.5648897           4.1718688
 Standard basis: STO-6G (5D, 7F)
 There are    20 symmetry adapted cartesian basis functions of A'  symmetry.
 There are     4 symmetry adapted cartesian basis functions of A"  symmetry.
 There are    20 symmetry adapted basis functions of A'  symmetry.
 There are     4 symmetry adapted basis functions of A"  symmetry.
    24 basis functions,   144 primitive gaussians,    24 cartesian basis functions
    15 alpha electrons       15 beta electrons
       nuclear repulsion energy       102.6140460315 Hartrees.
 NAtoms=    8 NActive=    8 NUniq=    8 SFac= 1.00D+00 NAtFMM=   60 NAOKFM=F Big=F
 Integral buffers will be    131072 words long.
 Raffenetti 1 integral format.
 Two-electron integral symmetry is turned on.
 One-electron integrals computed using PRISM.
 NBasis=    24 RedAO= T EigKep=  1.81D-01  NBF=    20     4
 NBsUse=    24 1.00D-06 EigRej= -1.00D+00 NBFU=    20     4
 Initial guess from the checkpoint file:  "/home/nakano/results/FrontierOrbital/4/Gau-74044.chk"
 B after Tr=     0.000000    0.000000    0.000000
         Rot=    1.000000    0.000000    0.000000    0.000279 Ang=   0.03 deg.
 Initial guess orbital symmetries:
       Occupied  (A') (A') (A') (A') (A') (A') (A') (A') (A') (A')
                 (A') (A') (A") (A') (A")
       Virtual   (A") (A") (A') (A') (A') (A') (A') (A') (A')
 Keep R1 ints in memory in symmetry-blocked form, NReq=881498.
 Requested convergence on RMS density matrix=1.00D-08 within 128 cycles.
 Requested convergence on MAX density matrix=1.00D-06.
 Requested convergence on             energy=1.00D-06.
 No special actions if energy rises.
 SCF Done:  E(RHF) =  -190.137531062     A.U. after    8 cycles
            NFock=  8  Conv=0.76D-08     -V/T= 2.0004
 Calling FoFJK, ICntrl=      2127 FMM=F ISym2X=1 I1Cent= 0 IOpClX= 0 NMat=1 NMatS=1 NMatT=0.
 ***** Axes restored to original set *****
 -------------------------------------------------------------------
 Center     Atomic                   Forces (Hartrees/Bohr)
 Number     Number              X              Y              Z
 -------------------------------------------------------------------
      1        6          -0.000001239    0.000000000    0.000176425
      2        6          -0.000085161    0.000000000   -0.000202984
      3        1           0.000023254    0.000000000    0.000006016
      4        1          -0.000046906    0.000000000    0.000002620
      5        1           0.000060117    0.000000000    0.000041954
      6        6          -0.000020648    0.000000000   -0.000113815
      7        8          -0.000031554    0.000000000    0.000032960
      8        1           0.000102137    0.000000000    0.000056824
 -------------------------------------------------------------------
 Cartesian Forces:  Max     0.000202984 RMS     0.000069780

 GradGradGradGradGradGradGradGradGradGradGradGradGradGradGradGradGradGrad
 Berny optimization.
 Using GEDIIS/GDIIS optimizer.
 FormGI is forming the generalized inverse of G from B-inverse, IUseBI=4.
 Internal  Forces:  Max     0.000185188 RMS     0.000053595
 Search for a local minimum.
 Step number   5 out of a maximum of   34
 All quantities printed in internal units (Hartrees-Bohrs-Radians)
 Mixed Optimization -- En-DIIS/RFO-DIIS
 Swapping is turned off.
 Update second derivatives using D2CorX and points    1    2    3    4    5
 DE= -2.35D-06 DEPred=-2.47D-06 R= 9.49D-01
 TightC=F SS=  1.41D+00  RLast= 2.69D-03 DXNew= 8.4853D-01 8.0806D-03
 Trust test= 9.49D-01 RLast= 2.69D-03 DXMaxT set to 5.05D-01
 ITU=  1  1  1  1  0
     Eigenvalues ---    0.01427   0.01427   0.02125   0.02750   0.02750
     Eigenvalues ---    0.15227   0.15722   0.16130   0.18288   0.21318
     Eigenvalues ---    0.22537   0.33682   0.33685   0.34153   0.36146
     Eigenvalues ---    0.36355   0.88016   1.11989
 En-DIIS/RFO-DIIS/Sim-DIIS IScMMF=       -3 using points:     5    4    3
 RFO step:  Lambda=-1.57323061D-07.
 DidBck=F Rises=F RFO-DIIS coefs:    0.94544    0.02297    0.03158
 Iteration  1 RMS(Cart)=  0.00029720 RMS(Int)=  0.00000003
 Iteration  2 RMS(Cart)=  0.00000004 RMS(Int)=  0.00000000
 ClnCor:  largest displacement from symmetrization is 1.65D-12 for atom     6.
 Variable       Old X    -DE/DX   Delta X   Delta X   Delta X     New X
                                 (Linear)    (Quad)   (Total)
    R1        2.47715  -0.00019   0.00005  -0.00025  -0.00020   2.47695
    R2        2.03734   0.00002  -0.00001   0.00004   0.00003   2.03737
    R3        2.03886   0.00004   0.00001   0.00009   0.00010   2.03896
    R4        2.04046   0.00007   0.00005   0.00014   0.00019   2.04065
    R5        2.85241  -0.00006  -0.00008  -0.00006  -0.00014   2.85227
    R6        2.30467   0.00003   0.00007  -0.00001   0.00005   2.30472
    R7        2.07987  -0.00012  -0.00012  -0.00020  -0.00032   2.07955
    A1        2.13503  -0.00001  -0.00008   0.00006  -0.00002   2.13501
    A2        2.12494  -0.00003   0.00005  -0.00020  -0.00016   2.12478
[...]
  23        2PZ         0.00000   0.00000   0.56075   0.00000  -0.40051
  24 8   H  1S         -0.19660  -0.01018   0.00000   0.35338   0.00000
                          16        17        18        19        20
                           V         V         V         V         V
     Eigenvalues --     0.22034   0.38324   0.58368   0.62557   0.67904
   1 1   C  1S          0.00000   0.00000  -0.01609  -0.02601  -0.18370
   2        2S          0.00000   0.00000   0.10360   0.13859   1.30508
   3        2PX         0.00000   0.00000  -0.31326   0.08901   0.49428
   4        2PY         0.00000   0.00000   0.54937  -0.10453   0.19633
   5        2PZ         0.61644  -0.54556   0.00000   0.00000   0.00000
   6 2   C  1S          0.00000   0.00000   0.02791   0.12488   0.00616
   7        2S          0.00000   0.00000  -0.15360  -0.81026   0.00090
   8        2PX         0.00000   0.00000  -0.29187   0.39498  -0.24176
   9        2PY         0.00000   0.00000   0.65171   0.18710  -0.15017
  10        2PZ        -0.42871   0.72130   0.00000   0.00000   0.00000
  11 3   H  1S          0.00000   0.00000  -0.62877  -0.00101  -0.84679
  12 4   H  1S          0.00000   0.00000   0.54942  -0.17613  -0.93360
  13 5   H  1S          0.00000   0.00000  -0.52934   0.70638  -0.09179
  14 6   C  1S          0.00000   0.00000  -0.10464  -0.14757   0.00245
  15        2S          0.00000   0.00000   0.67678   0.97590  -0.01909
  16        2PX         0.00000   0.00000  -0.07608   0.50175  -0.07536
  17        2PY         0.00000   0.00000   0.42046   0.04101  -0.15043
  18        2PZ        -0.53350  -0.65609   0.00000   0.00000   0.00000
  19 7   O  1S          0.00000   0.00000   0.02225   0.01130   0.00969
  20        2S          0.00000   0.00000  -0.15136  -0.05319  -0.07852
  21        2PX         0.00000   0.00000  -0.12614  -0.11219  -0.09166
  22        2PY         0.00000   0.00000  -0.21743   0.00186  -0.02429
  23        2PZ         0.59714   0.46265   0.00000   0.00000   0.00000
  24 8   H  1S          0.00000   0.00000  -0.11337  -0.90868   0.04918
                          21        22        23        24
                           V         V         V         V
     Eigenvalues --     0.72893   0.85351   0.93124   1.05829
   1 1   C  1S          0.05477   0.02315   0.04111   0.08396
   2        2S         -0.37429  -0.19938  -0.35346  -0.77577
   3        2PX         0.23247   0.13766   0.81289   0.74548
   4        2PY         0.15764   0.79874  -0.41530   0.53632
   5        2PZ         0.00000   0.00000   0.00000   0.00000
   6 2   C  1S         -0.14914  -0.03801  -0.04846  -0.07152
   7        2S          1.07430   0.30450   0.43533   0.66583
   8        2PX        -0.20464   0.47634   0.01742   1.06340
   9        2PY        -0.03295  -0.16259   0.94594   0.24295
  10        2PZ         0.00000   0.00000   0.00000   0.00000
  11 3   H  1S          0.03648  -0.56993   0.39857  -0.14331
  12 4   H  1S          0.11764   0.29695  -0.55506   0.00808
  13 5   H  1S         -0.63621   0.28390  -0.49743   0.30533
  14 6   C  1S         -0.02908   0.10187  -0.00043  -0.03556
  15        2S          0.23706  -0.72192   0.01012   0.26567
  16        2PX         0.44047   0.66660   0.31984  -0.75000
  17        2PY        -0.85236   0.24388   0.62647  -0.16800
  18        2PZ         0.00000   0.00000   0.00000   0.00000
  19 7   O  1S          0.01063  -0.07784  -0.03841   0.05455
  20        2S         -0.08157   0.62824   0.32612  -0.47239
  21        2PX        -0.22839   0.59400   0.34088  -0.40169
  22        2PY         0.18307   0.37389   0.08894  -0.26591
  23        2PZ         0.00000   0.00000   0.00000   0.00000
  24 8   H  1S         -0.78319  -0.01817   0.06144   0.25776
     Density Matrix:
                           1         2         3         4         5
   1 1   C  1S          2.07538
   2        2S         -0.22311   0.77788
   3        2PX         0.00009   0.03293   0.62053
   4        2PY         0.00006   0.01754  -0.00753   0.63589
   5        2PZ         0.00000   0.00000   0.00000   0.00000   0.77850
   6 2   C  1S          0.02635  -0.06714   0.10099   0.05588   0.00000
   7        2S         -0.06593   0.10755  -0.25185  -0.14101   0.00000
   8        2PX        -0.10355   0.26594  -0.35055  -0.18480   0.00000
   9        2PY        -0.05147   0.12720  -0.19057  -0.08373   0.00000
  10        2PZ         0.00000   0.00000   0.00000   0.00000   0.77520
  11 3   H  1S         -0.09978   0.28169   0.02812   0.55265   0.00000
  12 4   H  1S         -0.09877   0.27769   0.47051  -0.29482   0.00000
  13 5   H  1S          0.02785  -0.09283   0.11500  -0.01564   0.00000
  14 6   C  1S         -0.00565   0.01830  -0.00764  -0.02278   0.00000
  15        2S          0.02203  -0.06695   0.02567   0.10206   0.00000
  16        2PX         0.01221  -0.05038   0.00531   0.02923   0.00000
  17        2PY         0.01682  -0.05123   0.04654   0.06510   0.00000
  18        2PZ         0.00000   0.00000   0.00000   0.00000  -0.01154
  19 7   O  1S          0.00123  -0.00256   0.00246   0.00418   0.00000
  20        2S         -0.00425   0.00575  -0.00979  -0.01881   0.00000
  21        2PX        -0.00722   0.02639  -0.00543  -0.02226   0.00000
  22        2PY        -0.01509   0.06122  -0.06640  -0.03343   0.00000
  23        2PZ         0.00000   0.00000   0.00000   0.00000  -0.23567
  24 8   H  1S          0.00849  -0.03214   0.00310   0.02002   0.00000
                           6         7         8         9        10
   6 2   C  1S          2.07551
   7        2S         -0.22820   0.81497
   8        2PX         0.00132  -0.04099   0.62374
   9        2PY         0.00001  -0.04140  -0.01041   0.61735
  10        2PZ         0.00000   0.00000   0.00000   0.00000   0.79191
  11 3   H  1S          0.02716  -0.08315  -0.04965  -0.10207   0.00000
  12 4   H  1S          0.02594  -0.08673  -0.12102   0.01565   0.00000
  13 5   H  1S         -0.09920   0.27563  -0.47050   0.29309   0.00000
  14 6   C  1S          0.01716  -0.04720   0.00613   0.09567   0.00000
  15        2S         -0.04820   0.10129  -0.01327  -0.30667   0.00000
  16        2PX        -0.00096  -0.00884  -0.00461  -0.01449   0.00000
  17        2PY        -0.08716   0.26364  -0.01963  -0.45402   0.00000
  18        2PZ         0.00000   0.00000   0.00000   0.00000   0.10901
  19 7   O  1S         -0.00219   0.00574  -0.01069  -0.00710   0.00000
  20        2S          0.00599  -0.00985   0.04604   0.01471   0.00000
  21        2PX        -0.00885   0.06997   0.01884  -0.04491   0.00000
  22        2PY         0.05353  -0.27230   0.05071   0.26571   0.00000
  23        2PZ         0.00000   0.00000   0.00000   0.00000  -0.10212
  24 8   H  1S          0.03760  -0.16406  -0.03606   0.19432   0.00000
                          11        12        13        14        15
  11 3   H  1S          0.58179
  12 4   H  1S         -0.15077   0.58784
  13 5   H  1S         -0.09207   0.12431   0.58436
  14 6   C  1S         -0.02085   0.01713   0.02449   2.07523
  15        2S          0.09163  -0.07429  -0.10299  -0.23818   0.85925
  16        2PX         0.01851  -0.02154   0.02802  -0.01546   0.07045
  17        2PY         0.09008  -0.06590  -0.12624  -0.00626   0.04189
  18        2PZ         0.00000   0.00000   0.00000   0.00000   0.00000
  19 7   O  1S          0.00195  -0.00104   0.00170   0.01068   0.00282
  20        2S         -0.00610   0.00085  -0.00778  -0.00338  -0.17834
  21        2PX        -0.01185  -0.00008  -0.04649  -0.12376   0.37171
  22        2PY        -0.05507   0.03341  -0.00120  -0.07287   0.21300
  23        2PZ         0.00000   0.00000   0.00000   0.00000   0.00000
  24 8   H  1S         -0.01563   0.02098   0.10114  -0.10014   0.28451
                          16        17        18        19        20
  16        2PX         0.57322
  17        2PY        -0.03220   0.59863
  18        2PZ         0.00000   0.00000   0.72620
  19 7   O  1S          0.03440   0.01775   0.00000   2.10692
  20        2S          0.00426   0.01096   0.00000  -0.45746   2.05000
  21        2PX        -0.40967  -0.31870   0.00000   0.07327  -0.47651
  22        2PY        -0.31742  -0.00561   0.00000   0.04168  -0.27090
  23        2PZ         0.00000   0.00000   0.80207   0.00000   0.00000
  24 8   H  1S          0.44142  -0.26925   0.00000   0.01096  -0.03081
                          21        22        23        24
  21        2PX         1.23937
  22        2PY        -0.37305   1.68740
  23        2PZ         0.00000   0.00000   0.94970
  24 8   H  1S         -0.28130   0.24868   0.00000   0.63855
    Full Mulliken population analysis:
                           1         2         3         4         5
   1 1   C  1S          2.07538
   2        2S         -0.05427   0.77788
   3        2PX         0.00000   0.00000   0.62053
   4        2PY         0.00000   0.00000   0.00000   0.63589
   5        2PZ         0.00000   0.00000   0.00000   0.00000   0.77850
   6 2   C  1S          0.00000  -0.00319  -0.00718  -0.00210   0.00000
   7        2S         -0.00313   0.04439   0.09298   0.02745   0.00000
   8        2PX        -0.00737   0.09819   0.07153   0.04419   0.00000
   9        2PY        -0.00193   0.02476   0.04557  -0.01034   0.00000
  10        2PZ         0.00000   0.00000   0.00000   0.00000   0.19340
  11 3   H  1S         -0.00661   0.14034   0.00105   0.25964   0.00000
  12 4   H  1S         -0.00654   0.13822   0.19104   0.07038   0.00000
  13 5   H  1S          0.00018  -0.01048  -0.01566   0.00006   0.00000
  14 6   C  1S          0.00000   0.00004   0.00001   0.00007   0.00000
  15        2S          0.00005  -0.00406  -0.00108  -0.00710   0.00000
  16        2PX         0.00002  -0.00212  -0.00006  -0.00165   0.00000
  17        2PY         0.00005  -0.00356  -0.00263  -0.00461   0.00000
  18        2PZ         0.00000   0.00000   0.00000   0.00000  -0.00026
  19 7   O  1S          0.00000   0.00000   0.00000   0.00000   0.00000
  20        2S          0.00000   0.00001   0.00002   0.00004   0.00000
  21        2PX         0.00000   0.00004   0.00001   0.00005   0.00000
  22        2PY         0.00000   0.00012   0.00015   0.00007   0.00000
  23        2PZ         0.00000   0.00000   0.00000   0.00000  -0.00010
  24 8   H  1S          0.00001  -0.00129  -0.00002  -0.00102   0.00000
                           6         7         8         9        10
   6 2   C  1S          2.07551
   7        2S         -0.05550   0.81497
   8        2PX         0.00000   0.00000   0.62374
   9        2PY         0.00000   0.00000   0.00000   0.61735
  10        2PZ         0.00000   0.00000   0.00000   0.00000   0.79191
  11 3   H  1S          0.00017  -0.00931  -0.00398  -0.01109   0.00000
  12 4   H  1S          0.00017  -0.00979  -0.01647   0.00007   0.00000
  13 5   H  1S         -0.00655   0.13706   0.19078   0.07007   0.00000
  14 6   C  1S          0.00000  -0.00138  -0.00002  -0.00475   0.00000
  15        2S         -0.00141   0.03193   0.00037   0.10537   0.00000
  16        2PX         0.00000  -0.00025  -0.00078   0.00058   0.00000
  17        2PY        -0.00432   0.09058   0.00078   0.14521   0.00000
  18        2PZ         0.00000   0.00000   0.00000   0.00000   0.01889
  19 7   O  1S          0.00000   0.00001   0.00001   0.00002   0.00000
  20        2S          0.00000  -0.00035  -0.00122  -0.00069   0.00000
  21        2PX         0.00000   0.00146  -0.00012   0.00143   0.00000
  22        2PY         0.00004  -0.01009  -0.00162  -0.01196   0.00000
  23        2PZ         0.00000   0.00000   0.00000   0.00000  -0.00119
  24 8   H  1S          0.00019  -0.01523  -0.00156  -0.02038   0.00000
                          11        12        13        14        15
  11 3   H  1S          0.58179
  12 4   H  1S         -0.02369   0.58784
  13 5   H  1S         -0.00520   0.00243   0.58436
  14 6   C  1S         -0.00001   0.00003   0.00012   2.07523
  15        2S          0.00076  -0.00275  -0.00953  -0.05793   0.85925
  16        2PX         0.00008  -0.00083  -0.00116   0.00000   0.00000
  17        2PY         0.00093  -0.00181  -0.01328   0.00000   0.00000
  18        2PZ         0.00000   0.00000   0.00000   0.00000   0.00000
  19 7   O  1S          0.00000   0.00000   0.00000   0.00000   0.00011
  20        2S          0.00000   0.00000  -0.00016  -0.00012  -0.06467
  21        2PX         0.00000   0.00000  -0.00010  -0.00660   0.10311
  22        2PY        -0.00002   0.00003  -0.00003  -0.00219   0.03325
  23        2PZ         0.00000   0.00000   0.00000   0.00000   0.00000
  24 8   H  1S         -0.00008   0.00121   0.00172  -0.00631   0.13806
                          16        17        18        19        20
  16        2PX         0.57322
  17        2PY         0.00000   0.59863
  18        2PZ         0.00000   0.00000   0.72620
  19 7   O  1S         -0.00191  -0.00055   0.00000   2.10692
  20        2S         -0.00162  -0.00235   0.00000  -0.10574   2.05000
  21        2PX         0.07763   0.07113   0.00000   0.00000   0.00000
  22        2PY         0.07085  -0.00046   0.00000   0.00000   0.00000
  23        2PZ         0.00000   0.00000   0.16610   0.00000   0.00000
  24 8   H  1S          0.17906   0.06046   0.00000   0.00005  -0.00232
                          21        22        23        24
  21        2PX         1.23937
  22        2PY         0.00000   1.68740
  23        2PZ         0.00000   0.00000   0.94970
  24 8   H  1S         -0.02235   0.00064   0.00000   0.63855
     Gross orbital populations:
                           1
   1 1   C  1S          1.99585
   2        2S          1.14502
   3        2PX         0.99626
   4        2PY         1.01104
   5        2PZ         0.97155
   6 2   C  1S          1.99581
   7        2S          1.13581
   8        2PX         0.99644
   9        2PY         0.94927
  10        2PZ         1.00300
  11 3   H  1S          0.92476
  12 4   H  1S          0.92952
  13 5   H  1S          0.92463
  14 6   C  1S          1.99621
  15        2S          1.12373
  16        2PX         0.89105
  17        2PY         0.93421
  18        2PZ         0.91093
  19 7   O  1S          1.99891
  20        2S          1.87084
  21        2PX         1.46507
  22        2PY         1.76619
  23        2PZ         1.11452
  24 8   H  1S          0.94937
          Condensed to atoms (all electrons):
               1          2          3          4          5          6
     1  C    4.779644   0.607220   0.394412   0.393105  -0.025893  -0.026866
     2  C    0.607220   4.812469  -0.024212  -0.026031   0.391362   0.380786
     3  H    0.394412  -0.024212   0.581792  -0.023691  -0.005202   0.001768
     4  H    0.393105  -0.026031  -0.023691   0.587842   0.002427  -0.005366
     5  H   -0.025893   0.391362  -0.005202   0.002427   0.584357  -0.023854
     6  C   -0.026866   0.380786   0.001768  -0.005366  -0.023854   4.716669
     7  O    0.000417  -0.024274  -0.000022   0.000028  -0.000284   0.441731
     8  H   -0.002314  -0.036987  -0.000084   0.001205   0.001718   0.371270
               7          8
     1  C    0.000417  -0.002314
     2  C   -0.024274  -0.036987
     3  H   -0.000022  -0.000084
     4  H    0.000028   0.001205
     5  H   -0.000284   0.001718
     6  C    0.441731   0.371270
     7  O    7.821917  -0.023989
     8  H   -0.023989   0.638552
 Mulliken charges:
               1
     1  C   -0.119724
     2  C   -0.080333
     3  H    0.075238
     4  H    0.070482
     5  H    0.075369
     6  C    0.143863
     7  O   -0.215524
     8  H    0.050629
 Sum of Mulliken charges =   0.00000
 Mulliken charges with hydrogens summed into heavy atoms:
               1
     1  C    0.025996
     2  C   -0.004963
     6  C    0.194492
     7  O   -0.215524
 Electronic spatial extent (au):  <R**2>=            297.6431
 Charge=              0.0000 electrons
 Dipole moment (field-independent basis, Debye):
    X=              1.6062    Y=              1.1928    Z=              0.0000  Tot=              2.0007
 Quadrupole moment (field-independent basis, Debye-Ang):
   XX=            -22.7137   YY=            -22.5167   ZZ=            -22.0344
   XY=             -2.1923   XZ=              0.0000   YZ=              0.0000
 Traceless Quadrupole moment (field-independent basis, Debye-Ang):
   XX=             -0.2921   YY=             -0.0951   ZZ=              0.3872
   XY=             -2.1923   XZ=              0.0000   YZ=              0.0000
 Octapole moment (field-independent basis, Debye-Ang**2):
  XXX=             -1.5200  YYY=             -0.4065  ZZZ=              0.0000  XYY=              2.3327
  XXY=              1.4660  XXZ=              0.0000  XZZ=             -3.1148  YZZ=             -3.8080
  YYZ=              0.0000  XYZ=              0.0000
 Hexadecapole moment (field-independent basis, Debye-Ang**3):
 XXXX=           -126.0622 YYYY=           -191.2854 ZZZZ=            -16.3470 XXXY=            -55.4825
 XXXZ=              0.0000 YYYX=            -53.0892 YYYZ=              0.0000 ZZZX=              0.0000
 ZZZY=              0.0000 XXYY=            -55.9251 XXZZ=            -23.9905 YYZZ=            -35.7325
 XXYZ=              0.0000 YYXZ=              0.0000 ZZXY=            -16.7335
 N-N= 1.026140460315D+02 E-N=-6.525212770033D+02  KE= 1.900639117749D+02
 Symmetry A'   KE= 1.839369246082D+02
 Symmetry A"   KE= 6.126987166640D+00
 Orbital energies and kinetic energies (alpha):
                                 1                 2
   1         O               -20.554573         29.109435
   2         O               -11.277329         15.905961
   3         O               -11.197582         15.898600
   4         O               -11.194572         15.891723
   5         O                -1.335930          2.573238
   6         O                -1.024809          1.558605
   7         O                -0.821214          1.640952
   8         O                -0.734987          1.228011
   9         O                -0.611854          1.190066
  10         O                -0.601334          1.516010
  11         O                -0.521846          1.909733
  12         O                -0.499156          1.311869
  13         O                -0.467088          1.556073
  14         O                -0.346057          2.234259
  15         O                -0.334564          1.507421
  16         V                 0.220336          2.068507
  17         V                 0.383236          2.197495
  18         V                 0.583676          2.413376
  19         V                 0.625569          2.679006
  20         V                 0.679037          2.599846
  21         V                 0.728925          2.893095
  22         V                 0.853509          3.550145
  23         V                 0.931240          3.116885
  24         V                 1.058292          3.789306
 Total kinetic energy from orbitals= 1.900639117749D+02
 1\1\GINC-HPC\FOpt\RHF\STO-6G\C3H4O1\NAKANO\04-Oct-2021\0\\# hf/sto-6g
 pop=full opt\\CH2CHCHO molecule : Opt.\\0,1\C,-0.0006111894,0.,0.01319
 74728\C,-0.0074302752,0.,1.3240293279\H,0.9133791073,0.,-0.5585956105\
 H,-0.9151058005,0.,-0.5593136862\H,0.9085115503,0.,1.8958160395\C,-1.2
 858721983,0.,2.1265004796\O,-1.3256727181,0.,3.3454314293\H,-2.2033064
 953,0.,1.5184880974\\Version=ES64L-G16RevB.01\State=1-A'\HF=-190.13753
 11\RMSD=7.587e-09\RMSF=6.978e-05\Dipole=0.1244491,0.,-0.7772187\Quadru
 pole=1.2332262,0.2878623,-1.5210884,0.,0.8748697,0.\PG=CS [SG(C3H4O1)]
 \\@


 ON A TOMBSTONE, "HERE LIES LESTER MOORE,
 FOUR SLUGS FROM A 44, NO LES, NO MORE".
 Job cpu time:       0 days  0 hours  0 minutes  3.5 seconds.
 Elapsed time:       0 days  0 hours  0 minutes  3.4 seconds.
 File lengths (MBytes):  RWF=      6 Int=      0 D2E=      0 Chk=      1 Scr=      1
 Normal termination of Gaussian 16 at Mon Oct  4 00:30:39 2021.
