 Entering Gaussian System, Link 0=/home/apl/G16/g16/g16
 Initial command:
 /home/apl/G16/g16/l1.exe "/home/nakano/results/FrontierOrbital/5/Gau-74121.inp" -scrdir="/home/nakano/results/FrontierOrbital/5/"
 Entering Link 1 = /home/apl/G16/g16/l1.exe PID=     74122.

 Copyright (c) 1988-2017, Gaussian, Inc.  All Rights Reserved.

 This is part of the Gaussian(R) 16 program.  It is based on
 the Gaussian(R) 09 system (copyright 2009, Gaussian, Inc.),
 the Gaussian(R) 03 system (copyright 2003, Gaussian, Inc.),
 the Gaussian(R) 98 system (copyright 1998, Gaussian, Inc.),
 the Gaussian(R) 94 system (copyright 1995, Gaussian, Inc.),
 the Gaussian 92(TM) system (copyright 1992, Gaussian, Inc.),
 the Gaussian 90(TM) system (copyright 1990, Gaussian, Inc.),
 the Gaussian 88(TM) system (copyright 1988, Gaussian, Inc.),
 the Gaussian 86(TM) system (copyright 1986, Carnegie Mellon
 University), and the Gaussian 82(TM) system (copyright 1983,
 Carnegie Mellon University). Gaussian is a federally registered
 trademark of Gaussian, Inc.

 This software contains proprietary and confidential information,
 including trade secrets, belonging to Gaussian, Inc.

 This software is provided under written license and may be
 used, copied, transmitted, or stored only in accord with that
 written license.

 The following legend is applicable only to US Government
 contracts under FAR:

                    RESTRICTED RIGHTS LEGEND

 Use, reproduction and disclosure by the US Government is
 subject to restrictions as set forth in subparagraphs (a)
 and (c) of the Commercial Computer Software - Restricted
 Rights clause in FAR 52.227-19.

 Gaussian, Inc.
 340 Quinnipiac St., Bldg. 40, Wallingford CT 06492


 ---------------------------------------------------------------
 Warning -- This program may not be used in any manner that
 competes with the business of Gaussian, Inc. or will provide
 assistance to any competitor of Gaussian, Inc.  The licensee
 of this program is prohibited from giving any competitor of
 Gaussian, Inc. access to this program.  By using this program,
 the user acknowledges that Gaussian, Inc. is engaged in the
 business of creating and licensing software in the field of
 computational chemistry and represents and warrants to the
 licensee that it is not a competitor of Gaussian, Inc. and that
 it will not use this program in any manner prohibited above.
 ---------------------------------------------------------------


 Cite this work as:
 Gaussian 16, Revision B.01,
 M. J. Frisch, G. W. Trucks, H. B. Schlegel, G. E. Scuseria,
 M. A. Robb, J. R. Cheeseman, G. Scalmani, V. Barone,
 G. A. Petersson, H. Nakatsuji, X. Li, M. Caricato, A. V. Marenich,
 J. Bloino, B. G. Janesko, R. Gomperts, B. Mennucci, H. P. Hratchian,
 J. V. Ortiz, A. F. Izmaylov, J. L. Sonnenberg, D. Williams-Young,
 F. Ding, F. Lipparini, F. Egidi, J. Goings, B. Peng, A. Petrone,
 T. Henderson, D. Ranasinghe, V. G. Zakrzewski, J. Gao, N. Rega,
 G. Zheng, W. Liang, M. Hada, M. Ehara, K. Toyota, R. Fukuda,
 J. Hasegawa, M. Ishida, T. Nakajima, Y. Honda, O. Kitao, H. Nakai,
 T. Vreven, K. Throssell, J. A. Montgomery, Jr., J. E. Peralta,
 F. Ogliaro, M. J. Bearpark, J. J. Heyd, E. N. Brothers, K. N. Kudin,
 V. N. Staroverov, T. A. Keith, R. Kobayashi, J. Normand,
 K. Raghavachari, A. P. Rendell, J. C. Burant, S. S. Iyengar,
 J. Tomasi, M. Cossi, J. M. Millam, M. Klene, C. Adamo, R. Cammi,
 J. W. Ochterski, R. L. Martin, K. Morokuma, O. Farkas,
 J. B. Foresman, and D. J. Fox, Gaussian, Inc., Wallingford CT, 2016.

 ******************************************
 Gaussian 16:  ES64L-G16RevB.01 20-Dec-2017
                 4-Oct-2021
 ******************************************
 ------------------------
 # hf/sto-6g pop=full opt
 ------------------------
 1/18=20,19=15,38=1/1,3;
 2/9=110,12=2,17=6,18=5,40=1/2;
 3/6=6,11=9,25=1,30=1,71=1/1,2,3;
 4//1;
 5/5=2,38=5/2;
 6/7=3,28=1/1;
 7//1,2,3,16;
 1/18=20,19=15/3(2);
 2/9=110/2;
 99//99;
 2/9=110/2;
 3/6=6,11=9,25=1,30=1,71=1/1,2,3;
 4/5=5,16=3,69=1/1;
 5/5=2,38=5/2;
 7//1,2,3,16;
 1/18=20,19=15/3(-5);
 2/9=110/2;
 6/7=3,19=2,28=1/1;
 99/9=1/99;
 -------------------------
 CH2CHCOOH molecule : Opt.
 -------------------------
 Symbolic Z-matrix:
 Charge =  0 Multiplicity = 1
 C1
 C2                   1     1.35
 H3                   1     1.1      2     120.
 H4                   1     1.1      2     120.     3     180.     0
 H5                   2     1.1      1     120.     3     0.       0
 C6                   2     1.45     1     120.     3     180.     0
 O7                   6     1.2      2     125.     1     180.     0
 O8                   6     1.4      7     120.     2     180.     0
 H9                   8     0.95     6     110.     7     0.       0


 GradGradGradGradGradGradGradGradGradGradGradGradGradGradGradGradGradGrad
 Berny optimization.
 Initialization pass.
                           ----------------------------
                           !    Initial Parameters    !
                           ! (Angstroms and Degrees)  !
 --------------------------                            --------------------------
 ! Name  Definition              Value          Derivative Info.                !
 --------------------------------------------------------------------------------
 ! R1    R(1,2)                  1.35           estimate D2E/DX2                !
 ! R2    R(1,3)                  1.1            estimate D2E/DX2                !
 ! R3    R(1,4)                  1.1            estimate D2E/DX2                !
 ! R4    R(2,5)                  1.1            estimate D2E/DX2                !
 ! R5    R(2,6)                  1.45           estimate D2E/DX2                !
 ! R6    R(6,7)                  1.2            estimate D2E/DX2                !
 ! R7    R(6,8)                  1.4            estimate D2E/DX2                !
 ! R8    R(8,9)                  0.95           estimate D2E/DX2                !
 ! A1    A(2,1,3)              120.0            estimate D2E/DX2                !
 ! A2    A(2,1,4)              120.0            estimate D2E/DX2                !
 ! A3    A(3,1,4)              120.0            estimate D2E/DX2                !
 ! A4    A(1,2,5)              120.0            estimate D2E/DX2                !
 ! A5    A(1,2,6)              120.0            estimate D2E/DX2                !
 ! A6    A(5,2,6)              120.0            estimate D2E/DX2                !
 ! A7    A(2,6,7)              125.0            estimate D2E/DX2                !
 ! A8    A(2,6,8)              115.0            estimate D2E/DX2                !
 ! A9    A(7,6,8)              120.0            estimate D2E/DX2                !
 ! A10   A(6,8,9)              110.0            estimate D2E/DX2                !
 ! D1    D(3,1,2,5)              0.0            estimate D2E/DX2                !
 ! D2    D(3,1,2,6)            180.0            estimate D2E/DX2                !
 ! D3    D(4,1,2,5)            180.0            estimate D2E/DX2                !
 ! D4    D(4,1,2,6)              0.0            estimate D2E/DX2                !
 ! D5    D(1,2,6,7)            180.0            estimate D2E/DX2                !
 ! D6    D(1,2,6,8)              0.0            estimate D2E/DX2                !
 ! D7    D(5,2,6,7)              0.0            estimate D2E/DX2                !
 ! D8    D(5,2,6,8)            180.0            estimate D2E/DX2                !
 ! D9    D(2,6,8,9)            180.0            estimate D2E/DX2                !
 ! D10   D(7,6,8,9)              0.0            estimate D2E/DX2                !
 --------------------------------------------------------------------------------
 Trust Radius=3.00D-01 FncErr=1.00D-07 GrdErr=1.00D-07 EigMax=2.50D+02 EigMin=1.00D-04
 Number of steps in this run=     38 maximum allowed number of steps=    100.
 GradGradGradGradGradGradGradGradGradGradGradGradGradGradGradGradGradGrad

                          Input orientation:
 ---------------------------------------------------------------------
 Center     Atomic      Atomic             Coordinates (Angstroms)
 Number     Number       Type             X           Y           Z
 ---------------------------------------------------------------------
      1          6           0        0.000000    0.000000    0.000000
      2          6           0        0.000000    0.000000    1.350000
      3          1           0        0.952628    0.000000   -0.550000
      4          1           0       -0.952628    0.000000   -0.550000
      5          1           0        0.952628    0.000000    1.900000
      6          6           0       -1.255737    0.000000    2.075000
      7          8           0       -1.360324    0.000000    3.270434
      8          8           0       -2.402550    0.000000    1.271993
      9          1           0       -3.180744    0.000000    1.816891
 ---------------------------------------------------------------------
                    Distance matrix (angstroms):
                    1          2          3          4          5
     1  C    0.000000
     2  C    1.350000   0.000000
     3  H    1.100000   2.125441   0.000000
     4  H    1.100000   2.125441   1.905256   0.000000
     5  H    2.125441   1.100000   2.450000   3.103627   0.000000
     6  C    2.425387   1.450000   3.430379   2.642442   2.215288
     7  O    3.542064   2.353412   4.466034   3.842126   2.688463
     8  O    2.718494   2.403816   3.817967   2.328504   3.413445
     9  H    3.663090   3.214828   4.763081   3.250642   4.134208
                    6          7          8          9
     6  C    0.000000
     7  O    1.200000   0.000000
     8  O    1.400000   2.253886   0.000000
     9  H    1.942234   2.329532   0.950000   0.000000
 Stoichiometry    C3H4O2
 Framework group  CS[SG(C3H4O2)]
 Deg. of freedom    15
 Full point group                 CS      NOp   2
 Largest Abelian subgroup         CS      NOp   2
 Largest concise Abelian subgroup C1      NOp   1
                         Standard orientation:
 ---------------------------------------------------------------------
 Center     Atomic      Atomic             Coordinates (Angstroms)
 Number     Number       Type             X           Y           Z
 ---------------------------------------------------------------------
      1          6           0       -0.383043   -1.845559    0.000000
      2          6           0       -0.890825   -0.594697    0.000000
      3          1           0       -1.058841   -2.713486    0.000000
      4          1           0        0.706503   -1.996854    0.000000
      5          1           0       -1.980370   -0.443402    0.000000
      6          6           0        0.000000    0.549389    0.000000
      7          8           0       -0.352737    1.696375    0.000000
      8          8           0        1.364635    0.236706    0.000000
      9          1           0        1.880728    1.034295    0.000000
 ---------------------------------------------------------------------
 Rotational constants (GHZ):          10.4060725           4.5207928           3.1516127
 Standard basis: STO-6G (5D, 7F)
 There are    24 symmetry adapted cartesian basis functions of A'  symmetry.
 There are     5 symmetry adapted cartesian basis functions of A"  symmetry.
 There are    24 symmetry adapted basis functions of A'  symmetry.
 There are     5 symmetry adapted basis functions of A"  symmetry.
    29 basis functions,   174 primitive gaussians,    29 cartesian basis functions
    19 alpha electrons       19 beta electrons
       nuclear repulsion energy       162.6366593015 Hartrees.
 NAtoms=    9 NActive=    9 NUniq=    9 SFac= 1.00D+00 NAtFMM=   60 NAOKFM=F Big=F
 Integral buffers will be    131072 words long.
 Raffenetti 1 integral format.
 Two-electron integral symmetry is turned on.
 One-electron integrals computed using PRISM.
 NBasis=    29 RedAO= T EigKep=  1.95D-01  NBF=    24     5
 NBsUse=    29 1.00D-06 EigRej= -1.00D+00 NBFU=    24     5
 ExpMin= 1.00D-01 ExpMax= 1.36D+03 ExpMxC= 2.49D+02 IAcc=3 IRadAn=         5 AccDes= 0.00D+00
 Harris functional with IExCor=  205 and IRadAn=       5 diagonalized for initial guess.
 HarFok:  IExCor=  205 AccDes= 0.00D+00 IRadAn=         5 IDoV= 1 UseB2=F ITyADJ=14
 ICtDFT=  3500011 ScaDFX=  1.000000  1.000000  1.000000  1.000000
 FoFCou: FMM=F IPFlag=           0 FMFlag=      100000 FMFlg1=           0
         NFxFlg=           0 DoJE=T BraDBF=F KetDBF=T FulRan=T
         wScrn=  0.000000 ICntrl=       500 IOpCl=  0 I1Cent=   200000004 NGrid=           0
         NMat0=    1 NMatS0=      1 NMatT0=    0 NMatD0=    1 NMtDS0=    0 NMtDT0=    0
 Petite list used in FoFCou.
 Initial guess orbital symmetries:
       Occupied  (A') (A') (A') (A') (A') (A') (A') (A') (A') (A')
                 (A') (A') (A') (A") (A') (A') (A") (A") (A')
       Virtual   (A") (A") (A') (A') (A') (A') (A') (A') (A') (A')
 The electronic state of the initial guess is 1-A'.
 Keep R1 ints in memory in symmetry-blocked form, NReq=940904.
 Requested convergence on RMS density matrix=1.00D-08 within 128 cycles.
 Requested convergence on MAX density matrix=1.00D-06.
 Requested convergence on             energy=1.00D-06.
 No special actions if energy rises.
 SCF Done:  E(RHF) =  -264.696867662     A.U. after   13 cycles
            NFock= 13  Conv=0.53D-08     -V/T= 2.0001

 **********************************************************************

            Population analysis using the SCF Density.

 **********************************************************************

 Orbital symmetries:
       Occupied  (A') (A') (A') (A') (A') (A') (A') (A') (A') (A')
                 (A') (A') (A') (A") (A') (A') (A") (A') (A")
       Virtual   (A") (A") (A') (A') (A') (A') (A') (A') (A') (A')
 The electronic state is 1-A'.
 Alpha  occ. eigenvalues --  -20.54399 -20.51966 -11.32648 -11.20464 -11.19711
 Alpha  occ. eigenvalues --   -1.38281  -1.28034  -1.02076  -0.82284  -0.71825
 Alpha  occ. eigenvalues --   -0.61797  -0.59924  -0.55556  -0.54175  -0.50222
 Alpha  occ. eigenvalues --   -0.46113  -0.37580  -0.34731  -0.32179
 Alpha virt. eigenvalues --    0.21692   0.40025   0.54045   0.60093   0.64261
 Alpha virt. eigenvalues --    0.69406   0.73405   0.85152   0.92384   1.06272
     Molecular Orbital Coefficients:
                           1         2         3         4         5
                           O         O         O         O         O
     Eigenvalues --   -20.54399 -20.51966 -11.32648 -11.20464 -11.19711
   1 1   C  1S          0.00000   0.00000  -0.00010   0.99322  -0.06567
   2        2S          0.00000   0.00007  -0.00001   0.02207  -0.00632
   3        2PX         0.00006  -0.00005   0.00005  -0.00041   0.00113
   4        2PY        -0.00012   0.00003  -0.00008   0.00092  -0.00300
   5        2PZ         0.00000   0.00000   0.00000   0.00000   0.00000
   6 2   C  1S         -0.00001  -0.00001   0.00118   0.06595   0.99307
   7        2S          0.00013   0.00008  -0.00376  -0.00327   0.02345
   8        2PX         0.00021  -0.00028  -0.00154  -0.00110   0.00105
   9        2PY        -0.00013   0.00026  -0.00222   0.00282  -0.00076
  10        2PZ         0.00000   0.00000   0.00000   0.00000   0.00000
  11 3   H  1S         -0.00002  -0.00002  -0.00002  -0.00424   0.00023
  12 4   H  1S         -0.00022  -0.00001  -0.00018  -0.00421   0.00026
  13 5   H  1S          0.00003  -0.00012  -0.00007  -0.00031  -0.00424
  14 6   C  1S          0.00030   0.00032   0.99559   0.00010  -0.00066
  15        2S         -0.00266  -0.00485   0.02016  -0.00028  -0.00431
  16        2PX        -0.00261   0.00126  -0.00057   0.00008   0.00177
  17        2PY         0.00051  -0.00415   0.00046   0.00020   0.00235
  18        2PZ         0.00000   0.00000   0.00000   0.00000   0.00000
  19 7   O  1S          0.00023   0.99669  -0.00003   0.00000  -0.00001
  20        2S          0.00019   0.01602  -0.00373  -0.00002   0.00009
  21        2PX         0.00034   0.00131  -0.00030   0.00000  -0.00009
  22        2PY         0.00001  -0.00416   0.00102   0.00001  -0.00011
  23        2PZ         0.00000   0.00000   0.00000   0.00000   0.00000
  24 8   O  1S          0.99664  -0.00028   0.00019   0.00001   0.00000
  25        2S          0.01588   0.00018  -0.00253   0.00001   0.00010
  26        2PX        -0.00098   0.00001   0.00164   0.00004  -0.00007
  27        2PY         0.00284   0.00030  -0.00018   0.00005   0.00001
  28        2PZ         0.00000   0.00000   0.00000   0.00000   0.00000
  29 9   H  1S         -0.00389  -0.00010  -0.00085  -0.00002  -0.00004
                           6         7         8         9        10
                           O         O         O         O         O
     Eigenvalues --    -1.38281  -1.28034  -1.02076  -0.82284  -0.71825
   1 1   C  1S         -0.00555  -0.00351  -0.14878  -0.14517   0.05041
   2        2S          0.01279   0.00877   0.41195   0.44543  -0.16591
   3        2PX        -0.00075   0.00218  -0.03772  -0.01027  -0.16150
   4        2PY         0.00674   0.00402   0.10757  -0.08229   0.09330
   5        2PZ         0.00000   0.00000   0.00000   0.00000   0.00000
   6 2   C  1S         -0.02113   0.00136  -0.17493   0.05936  -0.09384
   7        2S          0.05154  -0.00634   0.47729  -0.17952   0.30276
   8        2PX         0.02166   0.00086   0.06543  -0.03900  -0.23036
   9        2PY         0.02177  -0.00849  -0.06257  -0.25669   0.00113
  10        2PZ         0.00000   0.00000   0.00000   0.00000   0.00000
  11 3   H  1S          0.00101   0.00065   0.08912   0.19780  -0.05488
  12 4   H  1S          0.00353   0.00517   0.09048   0.15515  -0.17928
  13 5   H  1S          0.00555  -0.00307   0.10409  -0.06252   0.26684
  14 6   C  1S         -0.12877   0.02777  -0.05299   0.11347   0.07603
  15        2S          0.30477  -0.05679   0.15749  -0.37629  -0.27842
  16        2PX         0.02434   0.13481  -0.07551   0.07475  -0.21396
  17        2PY         0.09746  -0.14465  -0.14506   0.19788   0.04508
  18        2PZ         0.00000   0.00000   0.00000   0.00000   0.00000
  19 7   O  1S         -0.15124   0.14292   0.03279  -0.05857  -0.02333
  20        2S          0.54189  -0.52966  -0.13138   0.26191   0.10843
  21        2PX         0.05065  -0.02035  -0.02482   0.03739  -0.11186
  22        2PY        -0.13389   0.10181  -0.01344   0.09974   0.04282
  23        2PZ         0.00000   0.00000   0.00000   0.00000   0.00000
  24 8   O  1S         -0.12968  -0.17577   0.02524  -0.01877  -0.01945
  25        2S          0.48007   0.67053  -0.10471   0.08060   0.08664
  26        2PX        -0.05264  -0.01525  -0.05011   0.16506   0.35608
  27        2PY         0.07348   0.07976  -0.04823   0.06781   0.13407
  28        2PZ         0.00000   0.00000   0.00000   0.00000   0.00000
  29 9   H  1S          0.07457   0.12609  -0.05858   0.12628   0.26481
                          11        12        13        14        15
                           O         O         O         O         O
     Eigenvalues --    -0.61797  -0.59924  -0.55556  -0.54175  -0.50222
   1 1   C  1S          0.00927   0.01973  -0.01339   0.00000   0.01060
   2        2S         -0.03961  -0.08712   0.03266   0.00000  -0.02650
   3        2PX        -0.30582  -0.00880   0.10690   0.00000   0.42961
   4        2PY        -0.00347   0.34723   0.34674   0.00000  -0.02619
   5        2PZ         0.00000   0.00000   0.00000   0.10825   0.00000
   6 2   C  1S         -0.01403  -0.03782  -0.02181   0.00000  -0.01134
   7        2S          0.05780   0.11523   0.07382   0.00000   0.06236
   8        2PX        -0.21197   0.08642   0.21887   0.00000  -0.34999
   9        2PY        -0.17130  -0.23321  -0.19523   0.00000   0.09814
  10        2PZ         0.00000   0.00000   0.00000   0.19384   0.00000
  11 3   H  1S          0.12597  -0.25302  -0.28133   0.00000  -0.24853
  12 4   H  1S         -0.24744  -0.07137   0.02778   0.00000   0.38599
  13 5   H  1S          0.16061  -0.02935  -0.17619   0.00000   0.37446
  14 6   C  1S         -0.02410   0.07474  -0.02339   0.00000   0.02225
  15        2S          0.10807  -0.25527   0.06702   0.00000  -0.08260
  16        2PX         0.34474   0.19266   0.00367   0.00000   0.15626
  17        2PY         0.17765  -0.15331   0.19063   0.00000   0.12408
  18        2PZ         0.00000   0.00000   0.00000   0.52973   0.00000
  19 7   O  1S          0.02927  -0.08641   0.04427   0.00000   0.00382
  20        2S         -0.15778   0.46482  -0.24882   0.00000  -0.02509
  21        2PX         0.31336  -0.00847   0.23854   0.00000   0.21034
  22        2PY        -0.03630   0.42802  -0.20425   0.00000   0.04613
  23        2PZ         0.00000   0.00000   0.00000   0.40224   0.00000
  24 8   O  1S          0.02787  -0.02405   0.05610   0.00000   0.00375
  25        2S         -0.14713   0.12171  -0.29990   0.00000  -0.02052
  26        2PX        -0.31981  -0.09953   0.09823   0.00000  -0.08566
  27        2PY         0.13136  -0.20591   0.38901   0.00000   0.00173
  28        2PZ         0.00000   0.00000   0.00000   0.52642   0.00000
  29 9   H  1S         -0.11488  -0.14531   0.25152   0.00000  -0.04673
                          16        17        18        19        20
                           O         O         O         O         V
     Eigenvalues --    -0.46113  -0.37580  -0.34731  -0.32179   0.21692
   1 1   C  1S          0.00794   0.00000   0.01306   0.00000   0.00000
   2        2S         -0.01852   0.00000  -0.04976   0.00000   0.00000
   3        2PX         0.04308   0.00000  -0.03944   0.00000   0.00000
   4        2PY        -0.18164   0.00000  -0.09100   0.00000   0.00000
   5        2PZ         0.00000  -0.26665   0.00000   0.53519   0.69291
   6 2   C  1S         -0.01321   0.00000  -0.02810   0.00000   0.00000
   7        2S          0.06450   0.00000   0.13351   0.00000   0.00000
   8        2PX         0.07433   0.00000   0.14544   0.00000   0.00000
   9        2PY         0.23947   0.00000   0.19361   0.00000   0.00000
  10        2PZ         0.00000  -0.33049   0.00000   0.52321  -0.48360
  11 3   H  1S          0.10933   0.00000   0.10034   0.00000   0.00000
  12 4   H  1S          0.00539   0.00000  -0.05004   0.00000   0.00000
  13 5   H  1S         -0.00737   0.00000  -0.07040   0.00000   0.00000
  14 6   C  1S         -0.01024   0.00000  -0.00963   0.00000   0.00000
  15        2S          0.04932   0.00000   0.01032   0.00000   0.00000
  16        2PX         0.10698   0.00000  -0.09760   0.00000   0.00000
  17        2PY        -0.29744   0.00000  -0.05175   0.00000   0.00000
  18        2PZ         0.00000  -0.17626   0.00000  -0.19403  -0.45778
  19 7   O  1S         -0.03672   0.00000   0.00204   0.00000   0.00000
  20        2S          0.22986   0.00000  -0.00678   0.00000   0.00000
  21        2PX         0.01060   0.00000   0.81960   0.00000   0.00000
  22        2PY         0.47902   0.00000   0.21262   0.00000   0.00000
  23        2PZ         0.00000  -0.36345   0.00000  -0.49303   0.50795
  24 8   O  1S          0.06671   0.00000  -0.00412   0.00000   0.00000
  25        2S         -0.37651   0.00000   0.02145   0.00000   0.00000
  26        2PX        -0.14605   0.00000   0.34811   0.00000   0.00000
  27        2PY         0.54532   0.00000  -0.29297   0.00000   0.00000
  28        2PZ         0.00000   0.78158   0.00000   0.22164   0.18572
  29 9   H  1S          0.24999   0.00000   0.02958   0.00000   0.00000
                          21        22        23        24        25
                           V         V         V         V         V
     Eigenvalues --     0.40025   0.54045   0.60093   0.64261   0.69406
   1 1   C  1S          0.00000  -0.04101   0.00748  -0.18144  -0.03020
   2        2S          0.00000   0.28937  -0.05667   1.23101   0.22840
   3        2PX         0.00000  -0.01078   0.61961   0.18196   0.17270
   4        2PY         0.00000  -0.06176   0.27987  -0.43249  -0.02509
   5        2PZ         0.45645   0.00000   0.00000   0.00000   0.00000
   6 2   C  1S          0.00000  -0.08228   0.01088   0.07050  -0.04745
   7        2S          0.00000   0.51871  -0.08483  -0.43058   0.31798
   8        2PX         0.00000  -0.14306   0.65787   0.00441  -0.01379
   9        2PY         0.00000   0.35148   0.20935   0.03620   0.25390
  10        2PZ        -0.66714   0.00000   0.00000   0.00000   0.00000
  11 3   H  1S          0.00000  -0.20106   0.63406  -0.84068  -0.01960
  12 4   H  1S          0.00000  -0.11626  -0.56056  -0.86433  -0.29635
  13 5   H  1S          0.00000  -0.52468   0.66911   0.25800  -0.20017
  14 6   C  1S          0.00000   0.10835   0.07966  -0.04797   0.11101
  15        2S          0.00000  -0.62432  -0.53529   0.29645  -0.71170
  16        2PX         0.00000  -0.41085   0.19872   0.02997  -0.15122
  17        2PY         0.00000   0.32354   0.15358  -0.07865   0.07888
  18        2PZ         0.74484   0.00000   0.00000   0.00000   0.00000
  19 7   O  1S          0.00000  -0.00472  -0.02108   0.00908  -0.02209
  20        2S          0.00000  -0.00261   0.14617  -0.06001   0.16157
  21        2PX         0.00000   0.15118  -0.00365  -0.02462   0.08729
  22        2PY         0.00000   0.04832  -0.20415   0.07614  -0.21173
  23        2PZ        -0.50527   0.00000   0.00000   0.00000   0.00000
  24 8   O  1S          0.00000  -0.10763  -0.02894   0.00624   0.02867
  25        2S          0.00000   0.75049   0.20252  -0.04531  -0.24408
  26        2PX         0.00000  -0.28600   0.03366   0.15438  -0.75215
  27        2PY         0.00000   0.48120   0.15141  -0.03554  -0.49596
  28        2PZ        -0.22254   0.00000   0.00000   0.00000   0.00000
  29 9   H  1S          0.00000  -0.65469  -0.25592  -0.04134   0.93180
                          26        27        28        29
                           V         V         V         V
     Eigenvalues --     0.73405   0.85152   0.92384   1.06272
   1 1   C  1S          0.03019  -0.05167  -0.06074   0.05927
   2        2S         -0.19217   0.40976   0.50261  -0.52275
   3        2PX         0.31565   0.37863  -0.84245   0.06375
   4        2PY        -0.37142   0.80598   0.36104  -0.59327
   5        2PZ         0.00000   0.00000   0.00000   0.00000
   6 2   C  1S         -0.16454   0.05720   0.03540  -0.05273
   7        2S          1.19765  -0.43290  -0.30372   0.46808
   8        2PX        -0.09623  -0.62060   0.43207   0.68218
   9        2PY         0.17916   0.32366   1.00817  -0.50680
  10        2PZ         0.00000   0.00000   0.00000   0.00000
  11 3   H  1S          0.02195   0.51441  -0.34631  -0.11121
  12 4   H  1S         -0.22741  -0.36288   0.45745   0.07798
  13 5   H  1S         -0.63452  -0.34542   0.31067   0.32597
  14 6   C  1S          0.00865  -0.09947   0.03200  -0.04444
  15        2S         -0.10643   0.72644  -0.27292   0.37684
  16        2PX         0.88006  -0.17462   0.44654  -0.39649
  17        2PY         0.33984   0.44911   0.54044   0.99290
  18        2PZ         0.00000   0.00000   0.00000   0.00000
  19 7   O  1S          0.00146   0.06529   0.01636   0.07910
  20        2S         -0.01317  -0.52763  -0.14622  -0.69819
  21        2PX        -0.28568  -0.15572  -0.17949  -0.19447
  22        2PY        -0.07040   0.56436   0.09635   0.67516
  23        2PZ         0.00000   0.00000   0.00000   0.00000
  24 8   O  1S          0.03916   0.01372   0.01474  -0.01107
  25        2S         -0.28256  -0.09156  -0.10794   0.08937
  26        2PX         0.41504   0.03418   0.05760  -0.22118
  27        2PY        -0.15828  -0.14378  -0.11503  -0.14251
  28        2PZ         0.00000   0.00000   0.00000   0.00000
  29 9   H  1S         -0.04503   0.07352   0.03652   0.09746
     Density Matrix:
                           1         2         3         4         5
   1 1   C  1S          2.07518
   2        2S         -0.23137   0.82030
   3        2PX        -0.00317   0.02566   0.64126
   4        2PY         0.00194  -0.03571   0.00261   0.61979
   5        2PZ         0.00000   0.00000   0.00000   0.00000   0.73850
   6 2   C  1S          0.02381  -0.06010   0.04044  -0.10182   0.00000
   7        2S         -0.06000   0.09480  -0.10315   0.26904   0.00000
   8        2PX        -0.04276   0.11345  -0.06062   0.15592   0.00000
   9        2PY         0.10257  -0.27194   0.16638  -0.39430   0.00000
  10        2PZ         0.00000   0.00000   0.00000   0.00000   0.77825
  11 3   H  1S         -0.09896   0.28255  -0.33784  -0.44025   0.00000
  12 4   H  1S         -0.09970   0.29042   0.54253  -0.08108   0.00000
  13 5   H  1S          0.02650  -0.09004   0.09848  -0.06526   0.00000
  14 6   C  1S         -0.00500   0.01690   0.00495   0.02260   0.00000
  15        2S          0.02078  -0.06443  -0.02975  -0.09949   0.00000
  16        2PX        -0.00573   0.01518   0.01154   0.03759   0.00000
  17        2PY        -0.02103   0.07643   0.01142   0.08025   0.00000
  18        2PZ         0.00000   0.00000   0.00000   0.00000   0.00100
  19 7   O  1S          0.00108  -0.00205   0.00004  -0.00524   0.00000
  20        2S         -0.00335   0.00241   0.00031   0.02230   0.00000
  21        2PX         0.00997  -0.04996   0.01354  -0.03852   0.00000
  22        2PY         0.01598  -0.06445   0.02091  -0.07158   0.00000
  23        2PZ         0.00000   0.00000   0.00000   0.00000  -0.24682
  24 8   O  1S         -0.00224   0.00751   0.00898  -0.00018   0.00000
  25        2S          0.01072  -0.03542  -0.04756   0.00375   0.00000
  26        2PX        -0.00386   0.01040  -0.00990   0.02308   0.00000
  27        2PY        -0.00817   0.03921   0.03720  -0.01390   0.00000
  28        2PZ         0.00000   0.00000   0.00000   0.00000  -0.06559
  29 9   H  1S         -0.00512   0.02161   0.02238  -0.00140   0.00000
                           6         7         8         9        10
   6 2   C  1S          2.07423
   7        2S         -0.22537   0.80582
   8        2PX         0.00440  -0.02824   0.61763
   9        2PY         0.00065   0.02790  -0.01768   0.59335
  10        2PZ         0.00000   0.00000   0.00000   0.00000   0.84109
  11 3   H  1S          0.02745  -0.09443   0.02069   0.11432   0.00000
  12 4   H  1S          0.02529  -0.08302  -0.09670   0.07485   0.00000
  13 5   H  1S         -0.10156   0.29656  -0.53820   0.09014   0.00000
  14 6   C  1S          0.02067  -0.05655  -0.06641  -0.08368   0.00000
  15        2S         -0.05576   0.11101   0.19882   0.25427   0.00000
  16        2PX         0.05302  -0.13557  -0.14896  -0.19592   0.00000
  17        2PY         0.07222  -0.19359  -0.21569  -0.27857   0.00000
  18        2PZ         0.00000   0.00000   0.00000   0.00000   0.11884
  19 7   O  1S         -0.00274   0.00725  -0.00276   0.01435   0.00000
  20        2S          0.00752  -0.01433   0.02306  -0.04821   0.00000
  21        2PX        -0.03793   0.21656   0.11039   0.15340   0.00000
  22        2PY        -0.03388   0.15079   0.06583   0.15637   0.00000
  23        2PZ         0.00000   0.00000   0.00000   0.00000  -0.11974
  24 8   O  1S         -0.00545   0.02212   0.02291   0.01436   0.00000
  25        2S          0.02888  -0.11405  -0.12117  -0.08387   0.00000
  26        2PX        -0.02920   0.12130   0.11509   0.08596   0.00000
  27        2PY        -0.00616   0.03485   0.00358   0.02059   0.00000
  28        2PZ         0.00000   0.00000   0.00000   0.00000  -0.08059
  29 9   H  1S         -0.02107   0.08987   0.07609   0.07515   0.00000
                          11        12        13        14        15
  11 3   H  1S          0.58583
  12 4   H  1S         -0.14536   0.56615
  13 5   H  1S         -0.08288   0.11472   0.57789
  14 6   C  1S         -0.01914   0.01536   0.02790   2.07486
  15        2S          0.08292  -0.06446  -0.10294  -0.23732   0.86236
  16        2PX        -0.04675   0.02147   0.08750   0.01117  -0.00204
  17        2PY        -0.07453   0.06050   0.07456   0.00711  -0.05253
  18        2PZ         0.00000   0.00000   0.00000   0.00000   0.00000
  19 7   O  1S          0.00175  -0.00084   0.00088   0.01164   0.00147
  20        2S         -0.00489  -0.00133  -0.00449  -0.00351  -0.18679
  21        2PX         0.03398  -0.01278  -0.00977  -0.05484   0.14672
  22        2PY         0.04588  -0.02172   0.03821   0.13617  -0.40595
  23        2PZ         0.00000   0.00000   0.00000   0.00000   0.00000
  24 8   O  1S         -0.00181  -0.00068  -0.01008   0.00604   0.00022
  25        2S          0.00782   0.00204   0.05401  -0.00317  -0.09306
  26        2PX         0.01218  -0.01067  -0.08404   0.10132  -0.36678
  27        2PY        -0.01823  -0.01188   0.00507  -0.03471   0.12793
  28        2PZ         0.00000   0.00000   0.00000   0.00000   0.00000
  29 9   H  1S         -0.00234  -0.00930  -0.04645   0.02551  -0.11377
                          16        17        18        19        20
  16        2PX         0.55441
  17        2PY         0.04799   0.58124
  18        2PZ         0.00000   0.00000   0.69867
  19 7   O  1S          0.01012  -0.03753   0.00000   2.10679
  20        2S          0.00737  -0.02545   0.00000  -0.45641   2.05689
  21        2PX         0.17674   0.19361   0.00000   0.02580  -0.16392
  22        2PY         0.23334  -0.52581   0.00000  -0.08140   0.53799
  23        2PZ         0.00000   0.00000   0.74562   0.00000   0.00000
  24 8   O  1S         -0.03059   0.01042   0.00000  -0.00048  -0.00320
  25        2S          0.04696  -0.01758   0.00000  -0.00215   0.03501
  26        2PX        -0.51090   0.09005   0.00000  -0.00899   0.02789
  27        2PY         0.17361   0.00864   0.00000   0.02029  -0.09945
  28        2PZ         0.00000   0.00000   0.19619   0.00000   0.00000
  29 9   H  1S         -0.14819   0.00516   0.00000   0.00435  -0.02092
                          21        22        23        24        25
  21        2PX         1.77753
  22        2PY         0.23147   1.08661
  23        2PZ         0.00000   0.00000   1.07394
  24 8   O  1S          0.03726   0.00985   0.00000   2.10271
  25        2S         -0.20562  -0.08182   0.00000  -0.43853   1.94869
  26        2PX         0.31006  -0.02615   0.00000  -0.03052   0.16716
  27        2PY        -0.21488   0.07616   0.00000   0.08442  -0.52351
  28        2PZ         0.00000   0.00000  -0.36318   0.00000   0.00000
  29 9   H  1S          0.04012   0.08412   0.00000  -0.02785  -0.01840
                          26        27        28        29
  26        2PX         0.86248
  27        2PY        -0.21764   1.26171
  28        2PZ         0.00000   0.00000   1.87423
  29 9   H  1S          0.33185   0.60533   0.00000   0.54821
    Full Mulliken population analysis:
                           1         2         3         4         5
   1 1   C  1S          2.07518
   2        2S         -0.05627   0.82030
   3        2PX         0.00000   0.00000   0.64126
   4        2PY         0.00000   0.00000   0.00000   0.61979
   5        2PZ         0.00000   0.00000   0.00000   0.00000   0.73850
   6 2   C  1S          0.00000  -0.00260  -0.00111  -0.00692   0.00000
   7        2S         -0.00259   0.03719   0.01566   0.10060   0.00000
   8        2PX        -0.00118   0.01722  -0.00926   0.03070   0.00000
   9        2PY        -0.00697   0.10168   0.03276   0.09950   0.00000
  10        2PZ         0.00000   0.00000   0.00000   0.00000   0.18105
  11 3   H  1S         -0.00624   0.13722   0.09627   0.16113   0.00000
  12 4   H  1S         -0.00629   0.14104   0.24926   0.00517   0.00000
  13 5   H  1S          0.00016  -0.00958  -0.00954  -0.00555   0.00000
  14 6   C  1S          0.00000   0.00004   0.00000   0.00010   0.00000
  15        2S          0.00005  -0.00429  -0.00042  -0.00871   0.00000
  16        2PX         0.00000  -0.00021   0.00025  -0.00081   0.00000
  17        2PY         0.00009  -0.00669  -0.00025  -0.00883   0.00000
  18        2PZ         0.00000   0.00000   0.00000   0.00000   0.00002
  19 7   O  1S          0.00000   0.00000   0.00000   0.00000   0.00000
  20        2S          0.00000   0.00000   0.00000   0.00008   0.00000
  21        2PX         0.00000   0.00000   0.00001   0.00000   0.00000
  22        2PY         0.00000   0.00018   0.00000   0.00033   0.00000
  23        2PZ         0.00000   0.00000   0.00000   0.00000  -0.00012
  24 8   O  1S          0.00000   0.00001   0.00001   0.00000   0.00000
  25        2S          0.00000  -0.00061  -0.00083   0.00008   0.00000
  26        2PX         0.00000  -0.00014   0.00011  -0.00043   0.00000
  27        2PY         0.00000  -0.00065  -0.00070   0.00024   0.00000
  28        2PZ         0.00000   0.00000   0.00000   0.00000  -0.00034
  29 9   H  1S          0.00000   0.00012   0.00011  -0.00001   0.00000
                           6         7         8         9        10
   6 2   C  1S          2.07423
   7        2S         -0.05482   0.80582
   8        2PX         0.00000   0.00000   0.61763
   9        2PY         0.00000   0.00000   0.00000   0.59335
  10        2PZ         0.00000   0.00000   0.00000   0.00000   0.84109
  11 3   H  1S          0.00016  -0.01005  -0.00021  -0.01469   0.00000
  12 4   H  1S          0.00015  -0.00883  -0.00937  -0.00636   0.00000
  13 5   H  1S         -0.00641   0.14402   0.24727   0.00575   0.00000
  14 6   C  1S          0.00000  -0.00192  -0.00235  -0.00380   0.00000
  15        2S         -0.00189   0.03805   0.04482   0.07361   0.00000
  16        2PX        -0.00188   0.03056   0.00056   0.04968   0.00000
  17        2PY        -0.00328   0.05604   0.05470   0.03676   0.00000
  18        2PZ         0.00000   0.00000   0.00000   0.00000   0.02302
  19 7   O  1S          0.00000   0.00001   0.00000   0.00005   0.00000
  20        2S          0.00000  -0.00058   0.00032  -0.00289   0.00000
  21        2PX         0.00001  -0.00239   0.00102  -0.00289   0.00000
  22        2PY         0.00004  -0.00709  -0.00124  -0.01042   0.00000
  23        2PZ         0.00000   0.00000   0.00000   0.00000  -0.00164
  24 8   O  1S          0.00000   0.00004   0.00006   0.00001   0.00000
  25        2S          0.00001  -0.00414  -0.00628  -0.00160   0.00000
  26        2PX         0.00003  -0.00494  -0.00634  -0.00213   0.00000
  27        2PY         0.00000  -0.00052  -0.00009   0.00006   0.00000
  28        2PZ         0.00000   0.00000   0.00000   0.00000  -0.00096
  29 9   H  1S         -0.00001   0.00125   0.00122   0.00071   0.00000
                          11        12        13        14        15
  11 3   H  1S          0.58583
  12 4   H  1S         -0.02026   0.56615
  13 5   H  1S         -0.00472   0.00206   0.57789
  14 6   C  1S         -0.00001   0.00003   0.00013   2.07486
  15        2S          0.00075  -0.00272  -0.00938  -0.05772   0.86236
  16        2PX         0.00018   0.00031  -0.00872   0.00000   0.00000
  17        2PY         0.00086  -0.00313  -0.00373   0.00000   0.00000
  18        2PZ         0.00000   0.00000   0.00000   0.00000   0.00000
  19 7   O  1S          0.00000   0.00000   0.00000   0.00000   0.00006
  20        2S          0.00000   0.00000  -0.00009  -0.00014  -0.06974
  21        2PX         0.00000  -0.00001   0.00013  -0.00105   0.01399
  22        2PY        -0.00002   0.00004  -0.00065  -0.00847   0.12591
  23        2PZ         0.00000   0.00000   0.00000   0.00000   0.00000
  24 8   O  1S          0.00000   0.00000   0.00000   0.00000   0.00001
  25        2S          0.00001   0.00008   0.00021  -0.00006  -0.02534
  26        2PX        -0.00001   0.00013   0.00038  -0.00333   0.09260
  27        2PY         0.00003   0.00051   0.00000  -0.00026   0.00740
  28        2PZ         0.00000   0.00000   0.00000   0.00000   0.00000
  29 9   H  1S          0.00000  -0.00013  -0.00012   0.00023  -0.01646
                          16        17        18        19        20
  16        2PX         0.55441
  17        2PY         0.00000   0.58124
  18        2PZ         0.00000   0.00000   0.69867
  19 7   O  1S         -0.00020  -0.00239   0.00000   2.10679
  20        2S         -0.00097  -0.01085   0.00000  -0.10550   2.05689
  21        2PX         0.03000   0.02888   0.00000   0.00000   0.00000
  22        2PY         0.03480   0.14163   0.00000   0.00000   0.00000
  23        2PZ         0.00000   0.00000   0.16077   0.00000   0.00000
  24 8   O  1S         -0.00123  -0.00010   0.00000   0.00000   0.00000
  25        2S          0.01597   0.00137   0.00000   0.00000   0.00081
  26        2PX         0.13870   0.00851   0.00000   0.00001  -0.00069
  27        2PY         0.01640   0.00103   0.00000   0.00001  -0.00210
  28        2PZ         0.00000   0.00000   0.02764   0.00000   0.00000
  29 9   H  1S         -0.02456   0.00022   0.00000   0.00001  -0.00086
                          21        22        23        24        25
  21        2PX         1.77753
  22        2PY         0.00000   1.08661
  23        2PZ         0.00000   0.00000   1.07394
  24 8   O  1S          0.00003  -0.00001   0.00000   2.10271
  25        2S         -0.00512   0.00173   0.00000  -0.10136   1.94869
  26        2PX        -0.00713  -0.00067   0.00000   0.00000   0.00000
  27        2PY        -0.00554  -0.00111   0.00000   0.00000   0.00000
  28        2PZ         0.00000   0.00000  -0.00266   0.00000   0.00000
  29 9   H  1S          0.00171  -0.00106   0.00000  -0.00157  -0.00886
                          26        27        28        29
  26        2PX         0.86248
  27        2PY         0.00000   1.26171
  28        2PZ         0.00000   0.00000   1.87423
  29 9   H  1S          0.07125   0.20085   0.00000   0.54821
     Gross orbital populations:
                           1
   1 1   C  1S          1.99594
   2        2S          1.17395
   3        2PX         1.01358
   4        2PY         0.98645
   5        2PZ         0.91912
   6 2   C  1S          1.99573
   7        2S          1.13136
   8        2PX         0.97920
   9        2PY         0.94217
  10        2PZ         1.04256
  11 3   H  1S          0.92623
  12 4   H  1S          0.90784
  13 5   H  1S          0.91953
  14 6   C  1S          1.99628
  15        2S          1.06293
  16        2PX         0.83325
  17        2PY         0.87210
  18        2PZ         0.91012
  19 7   O  1S          1.99885
  20        2S          1.86369
  21        2PX         1.82918
  22        2PY         1.36052
  23        2PZ         1.23029
  24 8   O  1S          1.99860
  25        2S          1.81478
  26        2PX         1.14836
  27        2PY         1.47727
  28        2PZ         1.89791
  29 9   H  1S          0.77223
          Condensed to atoms (all electrons):
               1          2          3          4          5          6
     1  C    4.782470   0.585732   0.388375   0.389181  -0.024509  -0.029641
     2  C    0.585732   4.822488  -0.024783  -0.024414   0.390630   0.392681
     3  H    0.388375  -0.024783   0.585834  -0.020258  -0.004718   0.001782
     4  H    0.389181  -0.024414  -0.020258   0.566147   0.002062  -0.005508
     5  H   -0.024509   0.390630  -0.004718   0.002062   0.577891  -0.021690
     6  C   -0.029641   0.392681   0.001782  -0.005508  -0.021690   4.656095
     7  O    0.000486  -0.027700  -0.000023   0.000029  -0.000611   0.442230
     8  O   -0.003264  -0.026786   0.000024   0.000724   0.000588   0.279302
     9  H    0.000217   0.003165  -0.000002  -0.000128  -0.000115  -0.040571
               7          8          9
     1  C    0.000486  -0.003264   0.000217
     2  C   -0.027700  -0.026786   0.003165
     3  H   -0.000023   0.000024  -0.000002
     4  H    0.000029   0.000724  -0.000128
     5  H   -0.000611   0.000588  -0.000115
     6  C    0.442230   0.279302  -0.040571
     7  O    7.890768  -0.022449  -0.000201
     8  O   -0.022449   7.847102   0.261664
     9  H   -0.000201   0.261664   0.548205
 Mulliken charges:
               1
     1  C   -0.089046
     2  C   -0.091013
     3  H    0.073768
     4  H    0.092165
     5  H    0.080474
     6  C    0.325322
     7  O   -0.282529
     8  O   -0.336905
     9  H    0.227766
 Sum of Mulliken charges =   0.00000
 Mulliken charges with hydrogens summed into heavy atoms:
               1
     1  C    0.076887
     2  C   -0.010540
     6  C    0.325322
     7  O   -0.282529
     8  O   -0.109140
 Electronic spatial extent (au):  <R**2>=            383.0625
 Charge=              0.0000 electrons
 Dipole moment (field-independent basis, Debye):
    X=              0.2955    Y=             -1.2736    Z=              0.0000  Tot=              1.3075
 Quadrupole moment (field-independent basis, Debye-Ang):
   XX=            -24.2711   YY=            -27.1622   ZZ=            -26.3696
   XY=              3.9017   XZ=              0.0000   YZ=              0.0000
 Traceless Quadrupole moment (field-independent basis, Debye-Ang):
   XX=              1.6632   YY=             -1.2279   ZZ=             -0.4353
   XY=              3.9017   XZ=              0.0000   YZ=              0.0000
 Octapole moment (field-independent basis, Debye-Ang**2):
  XXX=              7.3897  YYY=             -2.4335  ZZZ=              0.0000  XYY=              6.0690
  XXY=              6.2389  XXZ=              0.0000  XZZ=              2.3399  YZZ=              5.1198
  YYZ=              0.0000  XYZ=              0.0000
 Hexadecapole moment (field-independent basis, Debye-Ang**3):
 XXXX=           -120.2196 YYYY=           -271.5754 ZZZZ=            -18.2212 XXXY=            -11.8769
 XXXZ=              0.0000 YYYX=            -10.7404 YYYZ=              0.0000 ZZZX=              0.0000
 ZZZY=              0.0000 XXYY=            -59.3258 XXZZ=            -26.7781 YYZZ=            -48.3612
 XXYZ=              0.0000 YYXZ=              0.0000 ZZXY=             -8.3146
 N-N= 1.626366593015D+02 E-N=-9.506534028657D+02  KE= 2.646656773465D+02
 Symmetry A'   KE= 2.535014336241D+02
 Symmetry A"   KE= 1.116424372237D+01
 Orbital energies and kinetic energies (alpha):
                                 1                 2
   1         O               -20.543985         29.102445
   2         O               -20.519659         29.105143
   3         O               -11.326484         15.908225
   4         O               -11.204641         15.900344
   5         O               -11.197109         15.893315
   6         O                -1.382812          2.399116
   7         O                -1.280341          2.729606
   8         O                -1.020762          1.553938
   9         O                -0.822843          1.623145
  10         O                -0.718246          1.416197
  11         O                -0.617966          1.457578
  12         O                -0.599236          1.913215
  13         O                -0.555564          1.724750
  14         O                -0.541752          1.679343
  15         O                -0.502220          1.185973
  16         O                -0.461135          2.299933
  17         O                -0.375803          2.222081
  18         O                -0.347313          2.537795
  19         O                -0.321793          1.680697
  20         V                 0.216922          2.021863
  21         V                 0.400247          2.343346
  22         V                 0.540453          3.163511
  23         V                 0.600928          2.288524
  24         V                 0.642610          2.652081
  25         V                 0.694063          3.159156
  26         V                 0.734048          3.345823
  27         V                 0.851521          3.459354
  28         V                 0.923838          3.163671
  29         V                 1.062717          4.081900
 Total kinetic energy from orbitals= 2.646656773465D+02
 Calling FoFJK, ICntrl=      2127 FMM=F ISym2X=1 I1Cent= 0 IOpClX= 0 NMat=1 NMatS=1 NMatT=0.
 ***** Axes restored to original set *****
 -------------------------------------------------------------------
 Center     Atomic                   Forces (Hartrees/Bohr)
 Number     Number              X              Y              Z
 -------------------------------------------------------------------
      1        6           0.006580116    0.000000000    0.040833243
      2        6           0.049060327    0.000000000   -0.088520415
      3        1          -0.018711114    0.000000000    0.003840943
      4        1           0.018740925    0.000000000    0.005162300
      5        1          -0.021397151    0.000000000   -0.003295068
      6        6          -0.050470664    0.000000000    0.000759375
      7        8          -0.005371128    0.000000000    0.048363519
      8        8           0.049887701    0.000000000   -0.046658496
      9        1          -0.028319011    0.000000000    0.039514600
 -------------------------------------------------------------------
 Cartesian Forces:  Max     0.088520415 RMS     0.030495761

 GradGradGradGradGradGradGradGradGradGradGradGradGradGradGradGradGradGrad
 Berny optimization.
 FormGI is forming the generalized inverse of G from B-inverse, IUseBI=4.
 Internal  Forces:  Max     0.050670876 RMS     0.021113673
 Search for a local minimum.
 Step number   1 out of a maximum of   38
 All quantities printed in internal units (Hartrees-Bohrs-Radians)
 Mixed Optimization -- RFO/linear search
 Second derivative matrix not updated -- first step.
 ITU=  0
     Eigenvalues ---    0.01427   0.01509   0.01692   0.02089   0.02750
     Eigenvalues ---    0.02750   0.16000   0.16000   0.16000   0.16000
     Eigenvalues ---    0.22000   0.25000   0.25000   0.33682   0.33682
     Eigenvalues ---    0.33682   0.38245   0.45621   0.55021   0.57681
     Eigenvalues ---    1.04823
 RFO step:  Lambda=-2.76639061D-02 EMin= 1.42735167D-02
 Linear search not attempted -- first point.
 Iteration  1 RMS(Cart)=  0.07084487 RMS(Int)=  0.00316654
 Iteration  2 RMS(Cart)=  0.00388965 RMS(Int)=  0.00001005
 Iteration  3 RMS(Cart)=  0.00001360 RMS(Int)=  0.00000000
 Iteration  4 RMS(Cart)=  0.00000000 RMS(Int)=  0.00000000
 ClnCor:  largest displacement from symmetrization is 1.13D-08 for atom     3.
 Variable       Old X    -DE/DX   Delta X   Delta X   Delta X     New X
                                 (Linear)    (Quad)   (Total)
    R1        2.55113  -0.04984   0.00000  -0.08624  -0.08624   2.46489
    R2        2.07870  -0.01812   0.00000  -0.04973  -0.04973   2.02897
    R3        2.07870  -0.01881   0.00000  -0.05161  -0.05161   2.02709
    R4        2.07870  -0.02018   0.00000  -0.05536  -0.05536   2.02334
    R5        2.74010   0.05067   0.00000   0.12355   0.12355   2.86366
    R6        2.26767   0.04865   0.00000   0.04522   0.04522   2.31289
    R7        2.64562  -0.01357   0.00000  -0.02805  -0.02805   2.61757
    R8        1.79524   0.04586   0.00000   0.07587   0.07587   1.87111
    A1        2.09440   0.00496   0.00000   0.02643   0.02643   2.12083
    A2        2.09440   0.00261   0.00000   0.01392   0.01392   2.10832
    A3        2.09440  -0.00757   0.00000  -0.04035  -0.04035   2.05404
    A4        2.09440   0.00060   0.00000   0.01294   0.01294   2.10733
    A5        2.09440   0.01511   0.00000   0.06102   0.06102   2.15542
    A6        2.09440  -0.01571   0.00000  -0.07396  -0.07396   2.02044
    A7        2.18166   0.00814   0.00000   0.02931   0.02931   2.21097
    A8        2.00713  -0.01370   0.00000  -0.04934  -0.04934   1.95779
    A9        2.09440   0.00556   0.00000   0.02003   0.02003   2.11443
   A10        1.91986  -0.02895   0.00000  -0.15426  -0.15426   1.76560
    D1        0.00000   0.00000   0.00000   0.00000   0.00000   0.00000
    D2        3.14159   0.00000   0.00000   0.00000   0.00000   3.14159
    D3        3.14159   0.00000   0.00000   0.00000   0.00000   3.14159
    D4        0.00000   0.00000   0.00000   0.00000   0.00000   0.00000
    D5        3.14159   0.00000   0.00000   0.00000   0.00000   3.14159
    D6        0.00000   0.00000   0.00000   0.00000   0.00000   0.00000
    D7        0.00000   0.00000   0.00000   0.00000   0.00000   0.00000
    D8        3.14159   0.00000   0.00000   0.00000   0.00000   3.14159
    D9        3.14159   0.00000   0.00000   0.00000   0.00000   3.14159
   D10        0.00000   0.00000   0.00000   0.00000   0.00000   0.00000
         Item               Value     Threshold  Converged?
 Maximum Force            0.050671     0.000450     NO
 RMS     Force            0.021114     0.000300     NO
 Maximum Displacement     0.219355     0.001800     NO
 RMS     Displacement     0.071253     0.001200     NO
 Predicted change in Energy=-1.492279D-02
 GradGradGradGradGradGradGradGradGradGradGradGradGradGradGradGradGradGrad

                          Input orientation:
 ---------------------------------------------------------------------
 Center     Atomic      Atomic             Coordinates (Angstroms)
 Number     Number       Type             X           Y           Z
 ---------------------------------------------------------------------
      1          6           0        0.035784    0.000000   -0.014232
      2          6           0       -0.008290    0.000000    1.289387
      3          1           0        0.969551    0.000000   -0.544212
      4          1           0       -0.866552    0.000000   -0.594277
      5          1           0        0.892944    0.000000    1.867473
      6          6           0       -1.299538    0.000000    2.082520
      7          8           0       -1.408751    0.000000    3.301565
      8          8           0       -2.416346    0.000000    1.263126
      9          1           0       -3.145529    0.000000    1.932968
 ---------------------------------------------------------------------
                    Distance matrix (angstroms):
                    1          2          3          4          5
     1  C    0.000000
     2  C    1.304363   0.000000
     3  H    1.073686   2.078042   0.000000
     4  H    1.072689   2.069976   1.836785   0.000000
     5  H    2.067738   1.070705   2.412902   3.025895   0.000000
     6  C    2.485851   1.515382   3.471093   2.711590   2.203004
     7  O    3.616792   2.451561   4.521761   3.933391   2.711903
     8  O    2.764884   2.408199   3.838069   2.419052   3.364021
     9  H    3.729925   3.202571   4.803156   3.403044   4.039004
                    6          7          8          9
     6  C    0.000000
     7  O    1.223927   0.000000
     8  O    1.385159   2.273869   0.000000
     9  H    1.852039   2.211211   0.990149   0.000000
 Stoichiometry    C3H4O2
 Framework group  CS[SG(C3H4O2)]
 Deg. of freedom    15
 Full point group                 CS      NOp   2
 Largest Abelian subgroup         CS      NOp   2
 Largest concise Abelian subgroup C1      NOp   1
                         Standard orientation:
 ---------------------------------------------------------------------
 Center     Atomic      Atomic             Coordinates (Angstroms)
 Number     Number       Type             X           Y           Z
 ---------------------------------------------------------------------
      1          6           0       -0.348487   -1.888705    0.000000
      2          6           0       -0.847561   -0.683595    0.000000
      3          1           0       -0.979425   -2.757449    0.000000
      4          1           0        0.712962   -2.043584    0.000000
      5          1           0       -1.907198   -0.530044    0.000000
      6          6           0        0.000000    0.572598    0.000000
      7          8           0       -0.404788    1.727650    0.000000
      8          8           0        1.355714    0.288514    0.000000
      9          1           0        1.742540    1.199976    0.000000
 ---------------------------------------------------------------------
 Rotational constants (GHZ):          10.6890516           4.2896191           3.0611501
 Standard basis: STO-6G (5D, 7F)
 There are    24 symmetry adapted cartesian basis functions of A'  symmetry.
 There are     5 symmetry adapted cartesian basis functions of A"  symmetry.
 There are    24 symmetry adapted basis functions of A'  symmetry.
 There are     5 symmetry adapted basis functions of A"  symmetry.
    29 basis functions,   174 primitive gaussians,    29 cartesian basis functions
    19 alpha electrons       19 beta electrons
       nuclear repulsion energy       161.4609993046 Hartrees.
 NAtoms=    9 NActive=    9 NUniq=    9 SFac= 1.00D+00 NAtFMM=   60 NAOKFM=F Big=F
 Integral buffers will be    131072 words long.
 Raffenetti 1 integral format.
 Two-electron integral symmetry is turned on.
 One-electron integrals computed using PRISM.
 NBasis=    29 RedAO= T EigKep=  1.77D-01  NBF=    24     5
 NBsUse=    29 1.00D-06 EigRej= -1.00D+00 NBFU=    24     5
 Initial guess from the checkpoint file:  "/home/nakano/results/FrontierOrbital/5/Gau-74122.chk"
 B after Tr=     0.000000    0.000000    0.000000
         Rot=    0.999848    0.000000    0.000000   -0.017424 Ang=  -2.00 deg.
 Initial guess orbital symmetries:
       Occupied  (A') (A') (A') (A') (A') (A') (A') (A') (A') (A')
                 (A') (A') (A') (A") (A') (A') (A") (A') (A")
       Virtual   (A") (A") (A') (A') (A') (A') (A') (A') (A') (A')
 ExpMin= 1.00D-01 ExpMax= 1.36D+03 ExpMxC= 2.49D+02 IAcc=3 IRadAn=         5 AccDes= 0.00D+00
 Harris functional with IExCor=  205 and IRadAn=       5 diagonalized for initial guess.
 HarFok:  IExCor=  205 AccDes= 0.00D+00 IRadAn=         5 IDoV= 1 UseB2=F ITyADJ=14
 ICtDFT=  3500011 ScaDFX=  1.000000  1.000000  1.000000  1.000000
 FoFCou: FMM=F IPFlag=           0 FMFlag=      100000 FMFlg1=           0
         NFxFlg=           0 DoJE=T BraDBF=F KetDBF=T FulRan=T
         wScrn=  0.000000 ICntrl=       500 IOpCl=  0 I1Cent=   200000004 NGrid=           0
         NMat0=    1 NMatS0=      1 NMatT0=    0 NMatD0=    1 NMtDS0=    0 NMtDT0=    0
 Petite list used in FoFCou.
 Keep R1 ints in memory in symmetry-blocked form, NReq=940754.
 Requested convergence on RMS density matrix=1.00D-08 within 128 cycles.
 Requested convergence on MAX density matrix=1.00D-06.
 Requested convergence on             energy=1.00D-06.
 No special actions if energy rises.
 SCF Done:  E(RHF) =  -264.707805357     A.U. after   12 cycles
            NFock= 12  Conv=0.56D-08     -V/T= 2.0002
 Calling FoFJK, ICntrl=      2127 FMM=F ISym2X=1 I1Cent= 0 IOpClX= 0 NMat=1 NMatS=1 NMatT=0.
 ***** Axes restored to original set *****
 -------------------------------------------------------------------
 Center     Atomic                   Forces (Hartrees/Bohr)
 Number     Number              X              Y              Z
 -------------------------------------------------------------------
      1        6          -0.002980674    0.000000000   -0.002288512
      2        6          -0.002194400    0.000000000    0.008121329
      3        1           0.002970852    0.000000000   -0.003703171
      4        1          -0.003181537    0.000000000   -0.005828265
      5        1           0.004924026    0.000000000    0.007280139
      6        6           0.009326521    0.000000000    0.005975452
      7        8           0.002055950    0.000000000   -0.012612144
      8        8          -0.006741306    0.000000000    0.011102256
      9        1          -0.004179432    0.000000000   -0.008047086
 -------------------------------------------------------------------
 Cartesian Forces:  Max     0.012612144 RMS     0.005325277

 GradGradGradGradGradGradGradGradGradGradGradGradGradGradGradGradGradGrad
 Berny optimization.
 Using GEDIIS/GDIIS optimizer.
 FormGI is forming the generalized inverse of G from B-inverse, IUseBI=4.
 Internal  Forces:  Max     0.016378929 RMS     0.005480503
 Search for a local minimum.
 Step number   2 out of a maximum of   38
 All quantities printed in internal units (Hartrees-Bohrs-Radians)
 Mixed Optimization -- RFO/linear search
 Update second derivatives using D2CorX and points    1    2
 DE= -1.09D-02 DEPred=-1.49D-02 R= 7.33D-01
 TightC=F SS=  1.41D+00  RLast= 2.81D-01 DXNew= 5.0454D-01 8.4248D-01
 Trust test= 7.33D-01 RLast= 2.81D-01 DXMaxT set to 5.05D-01
 ITU=  1  0
 Use linear search instead of GDIIS.
     Eigenvalues ---    0.01427   0.01508   0.01692   0.02120   0.02750
     Eigenvalues ---    0.02750   0.15455   0.16000   0.16000   0.18085
     Eigenvalues ---    0.22252   0.24998   0.25659   0.33650   0.33682
     Eigenvalues ---    0.35049   0.38717   0.46243   0.56625   0.59206
     Eigenvalues ---    1.07795
 RFO step:  Lambda=-1.14433755D-03 EMin= 1.42735167D-02
 Quartic linear search produced a step of -0.17321.
 Iteration  1 RMS(Cart)=  0.02563235 RMS(Int)=  0.00056180
 Iteration  2 RMS(Cart)=  0.00052548 RMS(Int)=  0.00000002
 Iteration  3 RMS(Cart)=  0.00000002 RMS(Int)=  0.00000000
 ClnCor:  largest displacement from symmetrization is 1.22D-10 for atom     7.
 Variable       Old X    -DE/DX   Delta X   Delta X   Delta X     New X
                                 (Linear)    (Quad)   (Total)
    R1        2.46489   0.01171   0.01494  -0.00191   0.01302   2.47791
    R2        2.02897   0.00441   0.00861  -0.00070   0.00792   2.03689
    R3        2.02709   0.00583   0.00894   0.00233   0.01127   2.03836
    R4        2.02334   0.00808   0.00959   0.00697   0.01655   2.03989
    R5        2.86366  -0.00227  -0.02140   0.02345   0.00205   2.86571
    R6        2.31289  -0.01275  -0.00783  -0.00002  -0.00785   2.30504
    R7        2.61757   0.00700   0.00486   0.00627   0.01113   2.62870
    R8        1.87111  -0.00237  -0.01314   0.01371   0.00057   1.87168
    A1        2.12083   0.00022  -0.00458   0.00764   0.00307   2.12389
    A2        2.10832   0.00311  -0.00241   0.01940   0.01699   2.12531
    A3        2.05404  -0.00334   0.00699  -0.02705  -0.02006   2.03399
    A4        2.10733   0.00432  -0.00224   0.02447   0.02223   2.12957
    A5        2.15542  -0.00163  -0.01057   0.00844  -0.00213   2.15329
    A6        2.02044  -0.00269   0.01281  -0.03292  -0.02011   2.00033
    A7        2.21097  -0.00375  -0.00508  -0.00543  -0.01051   2.20046
    A8        1.95779   0.00536   0.00855   0.00603   0.01457   1.97236
    A9        2.11443  -0.00162  -0.00347  -0.00059  -0.00406   2.11036
   A10        1.76560   0.01638   0.02672   0.04608   0.07280   1.83841
    D1        0.00000   0.00000   0.00000   0.00000   0.00000   0.00000
    D2        3.14159   0.00000   0.00000   0.00000   0.00000   3.14159
    D3        3.14159   0.00000   0.00000   0.00000   0.00000   3.14159
    D4        0.00000   0.00000   0.00000   0.00000   0.00000   0.00000
    D5        3.14159   0.00000   0.00000   0.00000   0.00000   3.14159
    D6        0.00000   0.00000   0.00000   0.00000   0.00000   0.00000
    D7        0.00000   0.00000   0.00000   0.00000   0.00000   0.00000
    D8        3.14159   0.00000   0.00000   0.00000   0.00000   3.14159
    D9        3.14159   0.00000   0.00000   0.00000   0.00000   3.14159
   D10        0.00000   0.00000   0.00000   0.00000   0.00000   0.00000
         Item               Value     Threshold  Converged?
 Maximum Force            0.016379     0.000450     NO
 RMS     Force            0.005481     0.000300     NO
 Maximum Displacement     0.086832     0.001800     NO
 RMS     Displacement     0.025430     0.001200     NO
 Predicted change in Energy=-1.078581D-03
 GradGradGradGradGradGradGradGradGradGradGradGradGradGradGradGradGradGrad

                          Input orientation:
 ---------------------------------------------------------------------
 Center     Atomic      Atomic             Coordinates (Angstroms)
 Number     Number       Type             X           Y           Z
 ---------------------------------------------------------------------
      1          6           0        0.037894    0.000000   -0.018929
      2          6           0       -0.000288    0.000000    1.291770
      3          1           0        0.971160    0.000000   -0.558216
      4          1           0       -0.862206    0.000000   -0.613332
      5          1           0        0.897947    0.000000    1.890451
      6          6           0       -1.290435    0.000000    2.088762
      7          8           0       -1.383407    0.000000    3.304988
      8          8           0       -2.425913    0.000000    1.285205
      9          1           0       -3.191479    0.000000    1.913618
 ---------------------------------------------------------------------
                    Distance matrix (angstroms):
                    1          2          3          4          5
     1  C    0.000000
     2  C    1.311255   0.000000
     3  H    1.077875   2.089536   0.000000
     4  H    1.078654   2.091009   1.834194   0.000000
     5  H    2.094140   1.079465   2.449762   3.060567   0.000000
     6  C    2.491349   1.516468   3.481566   2.735816   2.197349
     7  O    3.615041   2.442553   4.524194   3.952833   2.684304
     8  O    2.787672   2.425634   3.865011   2.459598   3.378516
     9  H    3.763454   3.251214   4.841232   3.436712   4.089491
                    6          7          8          9
     6  C    0.000000
     7  O    1.219775   0.000000
     8  O    1.391048   2.272959   0.000000
     9  H    1.909095   2.281454   0.990451   0.000000
 Stoichiometry    C3H4O2
 Framework group  CS[SG(C3H4O2)]
 Deg. of freedom    15
 Full point group                 CS      NOp   2
 Largest Abelian subgroup         CS      NOp   2
 Largest concise Abelian subgroup C1      NOp   1
                         Standard orientation:
 ---------------------------------------------------------------------
 Center     Atomic      Atomic             Coordinates (Angstroms)
 Number     Number       Type             X           Y           Z
 ---------------------------------------------------------------------
      1          6           0       -0.353835   -1.894066    0.000000
      2          6           0       -0.853233   -0.681634    0.000000
      3          1           0       -0.986226   -2.766933    0.000000
      4          1           0        0.710383   -2.069950    0.000000
      5          1           0       -1.917492   -0.501083    0.000000
      6          6           0        0.000000    0.572028    0.000000
      7          8           0       -0.410858    1.720526    0.000000
      8          8           0        1.364409    0.301099    0.000000
      9          1           0        1.807335    1.186995    0.000000
 ---------------------------------------------------------------------
 Rotational constants (GHZ):          10.5325379           4.2814346           3.0440432
 Standard basis: STO-6G (5D, 7F)
 There are    24 symmetry adapted cartesian basis functions of A'  symmetry.
 There are     5 symmetry adapted cartesian basis functions of A"  symmetry.
 There are    24 symmetry adapted basis functions of A'  symmetry.
 There are     5 symmetry adapted basis functions of A"  symmetry.
    29 basis functions,   174 primitive gaussians,    29 cartesian basis functions
    19 alpha electrons       19 beta electrons
       nuclear repulsion energy       160.9689885527 Hartrees.
 NAtoms=    9 NActive=    9 NUniq=    9 SFac= 1.00D+00 NAtFMM=   60 NAOKFM=F Big=F
 Integral buffers will be    131072 words long.
 Raffenetti 1 integral format.
 Two-electron integral symmetry is turned on.
 One-electron integrals computed using PRISM.
 NBasis=    29 RedAO= T EigKep=  1.82D-01  NBF=    24     5
 NBsUse=    29 1.00D-06 EigRej= -1.00D+00 NBFU=    24     5
 Initial guess from the checkpoint file:  "/home/nakano/results/FrontierOrbital/5/Gau-74122.chk"
 B after Tr=     0.000000    0.000000    0.000000
         Rot=    1.000000    0.000000    0.000000    0.000287 Ang=   0.03 deg.
 Initial guess orbital symmetries:
       Occupied  (A') (A') (A') (A') (A') (A') (A') (A') (A') (A')
                 (A') (A') (A') (A") (A') (A') (A") (A') (A")
       Virtual   (A") (A") (A') (A') (A') (A') (A') (A') (A') (A')
 ExpMin= 1.00D-01 ExpMax= 1.36D+03 ExpMxC= 2.49D+02 IAcc=3 IRadAn=         5 AccDes= 0.00D+00
 Harris functional with IExCor=  205 and IRadAn=       5 diagonalized for initial guess.
 HarFok:  IExCor=  205 AccDes= 0.00D+00 IRadAn=         5 IDoV= 1 UseB2=F ITyADJ=14
 ICtDFT=  3500011 ScaDFX=  1.000000  1.000000  1.000000  1.000000
 FoFCou: FMM=F IPFlag=           0 FMFlag=      100000 FMFlg1=           0
         NFxFlg=           0 DoJE=T BraDBF=F KetDBF=T FulRan=T
         wScrn=  0.000000 ICntrl=       500 IOpCl=  0 I1Cent=   200000004 NGrid=           0
         NMat0=    1 NMatS0=      1 NMatT0=    0 NMatD0=    1 NMtDS0=    0 NMtDT0=    0
 Petite list used in FoFCou.
 Keep R1 ints in memory in symmetry-blocked form, NReq=940638.
 Requested convergence on RMS density matrix=1.00D-08 within 128 cycles.
 Requested convergence on MAX density matrix=1.00D-06.
 Requested convergence on             energy=1.00D-06.
 No special actions if energy rises.
 SCF Done:  E(RHF) =  -264.708621207     A.U. after   11 cycles
            NFock= 11  Conv=0.58D-08     -V/T= 2.0004
 Calling FoFJK, ICntrl=      2127 FMM=F ISym2X=1 I1Cent= 0 IOpClX= 0 NMat=1 NMatS=1 NMatT=0.
 ***** Axes restored to original set *****
 -------------------------------------------------------------------
 Center     Atomic                   Forces (Hartrees/Bohr)
 Number     Number              X              Y              Z
 -------------------------------------------------------------------
      1        6          -0.000861298    0.000000000    0.002156772
      2        6          -0.001963265    0.000000000    0.000224540
      3        1           0.000757029    0.000000000   -0.000657989
      4        1          -0.000228104    0.000000000   -0.000164686
      5        1          -0.000504440    0.000000000    0.000244538
      6        6          -0.004514200    0.000000000    0.003055867
      7        8           0.002276634    0.000000000   -0.003342303
      8        8          -0.000776715    0.000000000   -0.001120655
      9        1           0.005814360    0.000000000   -0.000396083
 -------------------------------------------------------------------
 Cartesian Forces:  Max     0.005814360 RMS     0.001851836

 GradGradGradGradGradGradGradGradGradGradGradGradGradGradGradGradGradGrad
 Berny optimization.
 Using GEDIIS/GDIIS optimizer.
 FormGI is forming the generalized inverse of G from B-inverse, IUseBI=4.
 Internal  Forces:  Max     0.006331703 RMS     0.002021136
 Search for a local minimum.
 Step number   3 out of a maximum of   38
 All quantities printed in internal units (Hartrees-Bohrs-Radians)
 Mixed Optimization -- RFO/linear search
 Update second derivatives using D2CorX and points    1    2    3
 DE= -8.16D-04 DEPred=-1.08D-03 R= 7.56D-01
 TightC=F SS=  1.41D+00  RLast= 8.98D-02 DXNew= 8.4853D-01 2.6944D-01
 Trust test= 7.56D-01 RLast= 8.98D-02 DXMaxT set to 5.05D-01
 ITU=  1  1  0
 Use linear search instead of GDIIS.
     Eigenvalues ---    0.01427   0.01509   0.01692   0.02135   0.02750
     Eigenvalues ---    0.02750   0.14240   0.16000   0.16003   0.21495
     Eigenvalues ---    0.22337   0.24764   0.28107   0.33680   0.33729
     Eigenvalues ---    0.35523   0.39162   0.48089   0.58043   0.61936
     Eigenvalues ---    1.04641
 RFO step:  Lambda=-1.81849631D-04 EMin= 1.42735167D-02
 Quartic linear search produced a step of -0.18972.
 Iteration  1 RMS(Cart)=  0.00846470 RMS(Int)=  0.00005339
 Iteration  2 RMS(Cart)=  0.00004884 RMS(Int)=  0.00000000
 Iteration  3 RMS(Cart)=  0.00000000 RMS(Int)=  0.00000000
 ClnCor:  largest displacement from symmetrization is 2.56D-09 for atom     7.
 Variable       Old X    -DE/DX   Delta X   Delta X   Delta X     New X
                                 (Linear)    (Quad)   (Total)
    R1        2.47791  -0.00134  -0.00247   0.00262   0.00015   2.47806
    R2        2.03689   0.00098  -0.00150   0.00499   0.00349   2.04038
    R3        2.03836   0.00028  -0.00214   0.00438   0.00224   2.04060
    R4        2.03989  -0.00028  -0.00314   0.00467   0.00153   2.04142
    R5        2.86571  -0.00333  -0.00039  -0.00707  -0.00746   2.85825
    R6        2.30504  -0.00351   0.00149  -0.00527  -0.00378   2.30126
    R7        2.62870  -0.00324  -0.00211  -0.00198  -0.00409   2.62461
    R8        1.87168  -0.00475  -0.00011  -0.00676  -0.00687   1.86481
    A1        2.12389   0.00025  -0.00058   0.00189   0.00131   2.12520
    A2        2.12531  -0.00011  -0.00322   0.00428   0.00105   2.12636
    A3        2.03399  -0.00014   0.00381  -0.00617  -0.00236   2.03162
    A4        2.12957   0.00069  -0.00422   0.00944   0.00523   2.13479
    A5        2.15329  -0.00040   0.00040  -0.00252  -0.00211   2.15118
    A6        2.00033  -0.00029   0.00381  -0.00693  -0.00311   1.99721
    A7        2.20046  -0.00157   0.00199  -0.00820  -0.00621   2.19425
    A8        1.97236  -0.00150  -0.00276   0.00003  -0.00274   1.96962
    A9        2.11036   0.00307   0.00077   0.00818   0.00895   2.11931
   A10        1.83841  -0.00633  -0.01381  -0.00822  -0.02203   1.81637
    D1        0.00000   0.00000   0.00000   0.00000   0.00000   0.00000
    D2        3.14159   0.00000   0.00000   0.00000   0.00000   3.14159
    D3        3.14159   0.00000   0.00000   0.00000   0.00000   3.14159
    D4        0.00000   0.00000   0.00000   0.00000   0.00000   0.00000
    D5        3.14159   0.00000   0.00000   0.00000   0.00000   3.14159
    D6        0.00000   0.00000   0.00000   0.00000   0.00000   0.00000
    D7        0.00000   0.00000   0.00000   0.00000   0.00000   0.00000
    D8        3.14159   0.00000   0.00000   0.00000   0.00000   3.14159
    D9        3.14159   0.00000   0.00000   0.00000   0.00000   3.14159
   D10        0.00000   0.00000   0.00000   0.00000   0.00000   0.00000
         Item               Value     Threshold  Converged?
 Maximum Force            0.006332     0.000450     NO
 RMS     Force            0.002021     0.000300     NO
 Maximum Displacement     0.032033     0.001800     NO
 RMS     Displacement     0.008480     0.001200     NO
 Predicted change in Energy=-1.358704D-04
 GradGradGradGradGradGradGradGradGradGradGradGradGradGradGradGradGradGrad

                          Input orientation:
 ---------------------------------------------------------------------
 Center     Atomic      Atomic             Coordinates (Angstroms)
 Number     Number       Type             X           Y           Z
 ---------------------------------------------------------------------
      1          6           0        0.034335    0.000000   -0.016846
      2          6           0       -0.004202    0.000000    1.293921
      3          1           0        0.968637    0.000000   -0.558028
      4          1           0       -0.865967    0.000000   -0.613094
      5          1           0        0.891400    0.000000    1.897982
      6          6           0       -1.292882    0.000000    2.085772
      7          8           0       -1.381051    0.000000    3.300351
      8          8           0       -2.422469    0.000000    1.277672
      9          1           0       -3.174527    0.000000    1.916587
 ---------------------------------------------------------------------
                    Distance matrix (angstroms):
                    1          2          3          4          5
     1  C    0.000000
     2  C    1.311334   0.000000
     3  H    1.079721   2.091921   0.000000
     4  H    1.079840   2.092688   1.835430   0.000000
     5  H    2.097887   1.080275   2.457225   3.064937   0.000000
     6  C    2.486466   1.512523   3.479102   2.732423   2.192340
     7  O    3.606538   2.433408   4.517535   3.947197   2.670332
     8  O    2.776988   2.418321   3.856086   2.449019   3.371426
     9  H    3.746326   3.230894   4.825923   3.424724   4.065970
                    6          7          8          9
     6  C    0.000000
     7  O    1.217775   0.000000
     8  O    1.388881   2.275034   0.000000
     9  H    1.889236   2.265251   0.986815   0.000000
 Stoichiometry    C3H4O2
 Framework group  CS[SG(C3H4O2)]
 Deg. of freedom    15
 Full point group                 CS      NOp   2
 Largest Abelian subgroup         CS      NOp   2
 Largest concise Abelian subgroup C1      NOp   1
                         Standard orientation:
 ---------------------------------------------------------------------
 Center     Atomic      Atomic             Coordinates (Angstroms)
 Number     Number       Type             X           Y           Z
 ---------------------------------------------------------------------
      1          6           0       -0.344604   -1.890368    0.000000
      2          6           0       -0.848766   -0.679825    0.000000
      3          1           0       -0.973508   -2.768023    0.000000
      4          1           0        0.721283   -2.063403    0.000000
      5          1           0       -1.913584   -0.497734    0.000000
      6          6           0        0.000000    0.572102    0.000000
      7          8           0       -0.419352    1.715395    0.000000
      8          8           0        1.362028    0.300310    0.000000
      9          1           0        1.784618    1.192062    0.000000
 ---------------------------------------------------------------------
 Rotational constants (GHZ):          10.5401671           4.3080203           3.0581008
 Standard basis: STO-6G (5D, 7F)
 There are    24 symmetry adapted cartesian basis functions of A'  symmetry.
 There are     5 symmetry adapted cartesian basis functions of A"  symmetry.
 There are    24 symmetry adapted basis functions of A'  symmetry.
 There are     5 symmetry adapted basis functions of A"  symmetry.
    29 basis functions,   174 primitive gaussians,    29 cartesian basis functions
    19 alpha electrons       19 beta electrons
       nuclear repulsion energy       161.2574430396 Hartrees.
 NAtoms=    9 NActive=    9 NUniq=    9 SFac= 1.00D+00 NAtFMM=   60 NAOKFM=F Big=F
 Integral buffers will be    131072 words long.
 Raffenetti 1 integral format.
 Two-electron integral symmetry is turned on.
 One-electron integrals computed using PRISM.
 NBasis=    29 RedAO= T EigKep=  1.82D-01  NBF=    24     5
 NBsUse=    29 1.00D-06 EigRej= -1.00D+00 NBFU=    24     5
 Initial guess from the checkpoint file:  "/home/nakano/results/FrontierOrbital/5/Gau-74122.chk"
 B after Tr=     0.000000    0.000000    0.000000
         Rot=    0.999998    0.000000    0.000000   -0.001769 Ang=  -0.20 deg.
 Initial guess orbital symmetries:
       Occupied  (A') (A') (A') (A') (A') (A') (A') (A') (A') (A')
                 (A') (A') (A') (A") (A') (A') (A") (A') (A")
       Virtual   (A") (A") (A') (A') (A') (A') (A') (A') (A') (A')
 ExpMin= 1.00D-01 ExpMax= 1.36D+03 ExpMxC= 2.49D+02 IAcc=3 IRadAn=         5 AccDes= 0.00D+00
 Harris functional with IExCor=  205 and IRadAn=       5 diagonalized for initial guess.
 HarFok:  IExCor=  205 AccDes= 0.00D+00 IRadAn=         5 IDoV= 1 UseB2=F ITyADJ=14
 ICtDFT=  3500011 ScaDFX=  1.000000  1.000000  1.000000  1.000000
 FoFCou: FMM=F IPFlag=           0 FMFlag=      100000 FMFlg1=           0
         NFxFlg=           0 DoJE=T BraDBF=F KetDBF=T FulRan=T
         wScrn=  0.000000 ICntrl=       500 IOpCl=  0 I1Cent=   200000004 NGrid=           0
         NMat0=    1 NMatS0=      1 NMatT0=    0 NMatD0=    1 NMtDS0=    0 NMtDT0=    0
 Petite list used in FoFCou.
 Keep R1 ints in memory in symmetry-blocked form, NReq=940683.
 Requested convergence on RMS density matrix=1.00D-08 within 128 cycles.
 Requested convergence on MAX density matrix=1.00D-06.
 Requested convergence on             energy=1.00D-06.
 No special actions if energy rises.
 SCF Done:  E(RHF) =  -264.708735741     A.U. after   10 cycles
            NFock= 10  Conv=0.57D-08     -V/T= 2.0003
 Calling FoFJK, ICntrl=      2127 FMM=F ISym2X=1 I1Cent= 0 IOpClX= 0 NMat=1 NMatS=1 NMatT=0.
 ***** Axes restored to original set *****
[...]
  17        2PY        -0.02074   0.06964   0.01539   0.08047   0.00000
  18        2PZ         0.00000   0.00000   0.00000   0.00000  -0.00221
  19 7   O  1S          0.00094  -0.00134  -0.00013  -0.00426   0.00000
  20        2S         -0.00271  -0.00008   0.00124   0.01741   0.00000
  21        2PX         0.00869  -0.04152   0.01216  -0.03192   0.00000
  22        2PY         0.01545  -0.06015   0.01869  -0.06614   0.00000
  23        2PZ         0.00000   0.00000   0.00000   0.00000  -0.21181
  24 8   O  1S         -0.00164   0.00523   0.00664  -0.00045   0.00000
  25        2S          0.00745  -0.02363  -0.03440   0.00521   0.00000
  26        2PX        -0.00249   0.00645  -0.00826   0.01667   0.00000
  27        2PY        -0.00629   0.03024   0.02569  -0.00744   0.00000
  28        2PZ         0.00000   0.00000   0.00000   0.00000  -0.06204
  29 9   H  1S         -0.00358   0.01623   0.01802  -0.00271   0.00000
                           6         7         8         9        10
   6 2   C  1S          2.07496
   7        2S         -0.22549   0.80182
   8        2PX         0.00357  -0.01732   0.62604
   9        2PY         0.00299   0.04047  -0.01499   0.59447
  10        2PZ         0.00000   0.00000   0.00000   0.00000   0.81901
  11 3   H  1S          0.02809  -0.08860   0.02424   0.10728   0.00000
  12 4   H  1S          0.02512  -0.08265  -0.09914   0.06584   0.00000
  13 5   H  1S         -0.10027   0.28198  -0.54521   0.08023   0.00000
  14 6   C  1S          0.01817  -0.05209  -0.06110  -0.08172   0.00000
  15        2S         -0.04999   0.11065   0.19824   0.25502   0.00000
  16        2PX         0.04605  -0.12993  -0.14426  -0.19005   0.00000
  17        2PY         0.06962  -0.20162  -0.22061  -0.29606   0.00000
  18        2PZ         0.00000   0.00000   0.00000   0.00000   0.10005
  19 7   O  1S         -0.00235   0.00618  -0.00271   0.01270   0.00000
  20        2S          0.00599  -0.01030   0.02151  -0.04030   0.00000
  21        2PX        -0.03555   0.20153   0.10049   0.15187   0.00000
  22        2PY        -0.03534   0.16277   0.07270   0.16792   0.00000
  23        2PZ         0.00000   0.00000   0.00000   0.00000  -0.09551
  24 8   O  1S         -0.00524   0.02165   0.02194   0.01607   0.00000
  25        2S          0.02770  -0.11080  -0.11557  -0.09203   0.00000
  26        2PX        -0.02874   0.12363   0.11774   0.10129   0.00000
  27        2PY        -0.00753   0.03839   0.00757   0.02530   0.00000
  28        2PZ         0.00000   0.00000   0.00000   0.00000  -0.06854
  29 9   H  1S         -0.02140   0.09340   0.07753   0.08589   0.00000
                          11        12        13        14        15
  11 3   H  1S          0.57958
  12 4   H  1S         -0.14695   0.56730
  13 5   H  1S         -0.09256   0.12210   0.57960
  14 6   C  1S         -0.01995   0.01589   0.02854   2.07467
  15        2S          0.08706  -0.06825  -0.11459  -0.24449   0.90223
  16        2PX        -0.04837   0.02693   0.08789   0.01026  -0.00884
  17        2PY        -0.08319   0.06716   0.08565   0.00650  -0.05087
  18        2PZ         0.00000   0.00000   0.00000   0.00000   0.00000
  19 7   O  1S          0.00158  -0.00078   0.00039   0.01074   0.00328
  20        2S         -0.00366  -0.00135  -0.00167  -0.00044  -0.19286
  21        2PX         0.03390  -0.01703  -0.01633  -0.05859   0.16947
  22        2PY         0.04799  -0.02506   0.02891   0.13454  -0.41272
  23        2PZ         0.00000   0.00000   0.00000   0.00000   0.00000
  24 8   O  1S         -0.00017  -0.00139  -0.01018   0.00561   0.00457
  25        2S         -0.00134   0.00707   0.05447   0.00066  -0.11972
  26        2PX         0.01954  -0.01723  -0.08170   0.10677  -0.37726
  27        2PY        -0.01289  -0.00825  -0.00220  -0.02828   0.09830
  28        2PZ         0.00000   0.00000   0.00000   0.00000   0.00000
  29 9   H  1S          0.00428  -0.01223  -0.04710   0.02492  -0.11188
                          16        17        18        19        20
  16        2PX         0.55491
  17        2PY         0.04645   0.58794
  18        2PZ         0.00000   0.00000   0.69124
  19 7   O  1S          0.01089  -0.03414   0.00000   2.10700
  20        2S          0.01316  -0.03114   0.00000  -0.45867   2.06510
  21        2PX         0.15475   0.23429   0.00000   0.02983  -0.18899
  22        2PY         0.26773  -0.49410   0.00000  -0.08046   0.52353
  23        2PZ         0.00000   0.00000   0.75169   0.00000   0.00000
  24 8   O  1S         -0.02882   0.00809   0.00000  -0.00029  -0.00404
  25        2S          0.03217  -0.00765   0.00000  -0.00323   0.03900
  26        2PX        -0.53600   0.06848   0.00000  -0.00873   0.02531
  27        2PY         0.13502   0.01971   0.00000   0.01973  -0.09687
  28        2PZ         0.00000   0.00000   0.20966   0.00000   0.00000
  29 9   H  1S         -0.14431  -0.00437   0.00000   0.00528  -0.02541
                          21        22        23        24        25
  21        2PX         1.74876
  22        2PY         0.27142   1.08811
  23        2PZ         0.00000   0.00000   1.09126
  24 8   O  1S          0.03445   0.01156   0.00000   2.10393
  25        2S         -0.18890  -0.09168   0.00000  -0.44591   1.98605
  26        2PX         0.31001  -0.01859   0.00000  -0.03792   0.21859
  27        2PY        -0.20692   0.06176   0.00000   0.08129  -0.49901
  28        2PZ         0.00000   0.00000  -0.37645   0.00000   0.00000
  29 9   H  1S          0.02645   0.09353   0.00000  -0.02232  -0.03283
                          26        27        28        29
  26        2PX         0.90286
  27        2PY        -0.21681   1.17928
  28        2PZ         0.00000   0.00000   1.86152
  29 9   H  1S          0.29348   0.64282   0.00000   0.57213
    Full Mulliken population analysis:
                           1         2         3         4         5
   1 1   C  1S          2.07552
   2        2S         -0.05446   0.78164
   3        2PX         0.00000   0.00000   0.64815
   4        2PY         0.00000   0.00000   0.00000   0.61991
   5        2PZ         0.00000   0.00000   0.00000   0.00000   0.75147
   6 2   C  1S          0.00000  -0.00316  -0.00132  -0.00806   0.00000
   7        2S         -0.00314   0.04372   0.01697   0.10592   0.00000
   8        2PX        -0.00144   0.01913  -0.00989   0.03377   0.00000
   9        2PY        -0.00780   0.10177   0.03430   0.09166   0.00000
  10        2PZ         0.00000   0.00000   0.00000   0.00000   0.19394
  11 3   H  1S         -0.00657   0.13934   0.09203   0.16869   0.00000
  12 4   H  1S         -0.00653   0.14018   0.25414   0.00571   0.00000
  13 5   H  1S          0.00017  -0.00971  -0.01040  -0.00534   0.00000
  14 6   C  1S          0.00000   0.00003   0.00000   0.00008   0.00000
  15        2S          0.00004  -0.00327  -0.00038  -0.00737   0.00000
  16        2PX         0.00000  -0.00011   0.00023  -0.00058   0.00000
  17        2PY         0.00007  -0.00547  -0.00026  -0.00806   0.00000
  18        2PZ         0.00000   0.00000   0.00000   0.00000  -0.00005
  19 7   O  1S          0.00000   0.00000   0.00000   0.00000   0.00000
  20        2S          0.00000   0.00000   0.00000   0.00005   0.00000
  21        2PX         0.00000   0.00000   0.00000   0.00000   0.00000
  22        2PY         0.00000   0.00014   0.00000   0.00026   0.00000
  23        2PZ         0.00000   0.00000   0.00000   0.00000  -0.00009
  24 8   O  1S          0.00000   0.00000   0.00000   0.00000   0.00000
  25        2S          0.00000  -0.00035  -0.00050   0.00010   0.00000
  26        2PX         0.00000  -0.00007   0.00007  -0.00027   0.00000
  27        2PY         0.00000  -0.00045  -0.00041   0.00012   0.00000
  28        2PZ         0.00000   0.00000   0.00000   0.00000  -0.00027
  29 9   H  1S          0.00000   0.00007   0.00007  -0.00001   0.00000
                           6         7         8         9        10
   6 2   C  1S          2.07496
   7        2S         -0.05485   0.80182
   8        2PX         0.00000   0.00000   0.62604
   9        2PY         0.00000   0.00000   0.00000   0.59447
  10        2PZ         0.00000   0.00000   0.00000   0.00000   0.81901
  11 3   H  1S          0.00018  -0.00999  -0.00020  -0.01457   0.00000
  12 4   H  1S          0.00016  -0.00934  -0.01014  -0.00593   0.00000
  13 5   H  1S         -0.00663   0.14033   0.25317   0.00630   0.00000
  14 6   C  1S          0.00000  -0.00151  -0.00169  -0.00334   0.00000
  15        2S         -0.00145   0.03471   0.03816   0.07252   0.00000
  16        2PX        -0.00127   0.02501  -0.00240   0.04364   0.00000
  17        2PY        -0.00284   0.05733   0.05065   0.04948   0.00000
  18        2PZ         0.00000   0.00000   0.00000   0.00000   0.01722
  19 7   O  1S          0.00000   0.00001   0.00000   0.00003   0.00000
  20        2S          0.00000  -0.00035   0.00020  -0.00205   0.00000
  21        2PX         0.00001  -0.00144   0.00089  -0.00188   0.00000
  22        2PY         0.00003  -0.00652  -0.00090  -0.00977   0.00000
  23        2PZ         0.00000   0.00000   0.00000   0.00000  -0.00105
  24 8   O  1S          0.00000   0.00003   0.00005   0.00002   0.00000
  25        2S          0.00001  -0.00387  -0.00562  -0.00199   0.00000
  26        2PX         0.00002  -0.00474  -0.00588  -0.00277   0.00000
  27        2PY         0.00000  -0.00065  -0.00021  -0.00002   0.00000
  28        2PZ         0.00000   0.00000   0.00000   0.00000  -0.00078
  29 9   H  1S         -0.00001   0.00125   0.00113   0.00089   0.00000
                          11        12        13        14        15
  11 3   H  1S          0.57958
  12 4   H  1S         -0.02288   0.56730
  13 5   H  1S         -0.00523   0.00237   0.57960
  14 6   C  1S          0.00000   0.00002   0.00014   2.07467
  15        2S          0.00071  -0.00243  -0.01086  -0.05947   0.90223
  16        2PX         0.00015   0.00033  -0.00887   0.00000   0.00000
  17        2PY         0.00089  -0.00296  -0.00485   0.00000   0.00000
  18        2PZ         0.00000   0.00000   0.00000   0.00000   0.00000
  19 7   O  1S          0.00000   0.00000   0.00000   0.00000   0.00012
  20        2S          0.00000   0.00000  -0.00003  -0.00002  -0.07009
  21        2PX         0.00000  -0.00001   0.00020  -0.00124   0.01864
  22        2PY        -0.00002   0.00003  -0.00053  -0.00776   0.12349
  23        2PZ         0.00000   0.00000   0.00000   0.00000   0.00000
  24 8   O  1S          0.00000   0.00000   0.00000   0.00000   0.00011
  25        2S          0.00000   0.00023   0.00024   0.00001  -0.03321
  26        2PX        -0.00002   0.00016   0.00040  -0.00367   0.09725
  27        2PY         0.00002   0.00028   0.00000  -0.00019   0.00499
  28        2PZ         0.00000   0.00000   0.00000   0.00000   0.00000
  29 9   H  1S          0.00000  -0.00012  -0.00013   0.00025  -0.01761
                          16        17        18        19        20
  16        2PX         0.55491
  17        2PY         0.00000   0.58794
  18        2PZ         0.00000   0.00000   0.69124
  19 7   O  1S         -0.00024  -0.00205   0.00000   2.10700
  20        2S         -0.00199  -0.01278   0.00000  -0.10602   2.06510
  21        2PX         0.02252   0.03967   0.00000   0.00000   0.00000
  22        2PY         0.04533   0.12497   0.00000   0.00000   0.00000
  23        2PZ         0.00000   0.00000   0.15615   0.00000   0.00000
  24 8   O  1S         -0.00120  -0.00007   0.00000   0.00000   0.00000
  25        2S          0.01118   0.00052   0.00000   0.00000   0.00085
  26        2PX         0.14952   0.00571   0.00000   0.00001  -0.00061
  27        2PY         0.01126   0.00252   0.00000   0.00001  -0.00186
  28        2PZ         0.00000   0.00000   0.03027   0.00000   0.00000
  29 9   H  1S         -0.02516  -0.00027   0.00000   0.00001  -0.00119
                          21        22        23        24        25
  21        2PX         1.74876
  22        2PY         0.00000   1.08811
  23        2PZ         0.00000   0.00000   1.09126
  24 8   O  1S          0.00002  -0.00001   0.00000   2.10393
  25        2S         -0.00459   0.00176   0.00000  -0.10307   1.98605
  26        2PX        -0.00731  -0.00045   0.00000   0.00000   0.00000
  27        2PY        -0.00499  -0.00075   0.00000   0.00000   0.00000
  28        2PZ         0.00000   0.00000  -0.00259   0.00000   0.00000
  29 9   H  1S          0.00130  -0.00108   0.00000  -0.00116  -0.01502
                          26        27        28        29
  26        2PX         0.90286
  27        2PY         0.00000   1.17928
  28        2PZ         0.00000   0.00000   1.86152
  29 9   H  1S          0.04804   0.22202   0.00000   0.57213
     Gross orbital populations:
                           1
   1 1   C  1S          1.99587
   2        2S          1.14896
   3        2PX         1.02280
   4        2PY         0.99658
   5        2PZ         0.94501
   6 2   C  1S          1.99579
   7        2S          1.13070
   8        2PX         0.98481
   9        2PY         0.94496
  10        2PZ         1.02832
  11 3   H  1S          0.92210
  12 4   H  1S          0.91055
  13 5   H  1S          0.92033
  14 6   C  1S          1.99633
  15        2S          1.08682
  16        2PX         0.82224
  17        2PY         0.88014
  18        2PZ         0.89483
  19 7   O  1S          1.99889
  20        2S          1.86921
  21        2PX         1.81054
  22        2PY         1.35634
  23        2PZ         1.24368
  24 8   O  1S          1.99868
  25        2S          1.83273
  26        2PX         1.17823
  27        2PY         1.41096
  28        2PZ         1.88815
  29 9   H  1S          0.78542
          Condensed to atoms (all electrons):
               1          2          3          4          5          6
     1  C    4.767760   0.606368   0.393498   0.393494  -0.025284  -0.025100
     2  C    0.606368   4.806610  -0.024583  -0.025254   0.393168   0.374205
     3  H    0.393498  -0.024583   0.579581  -0.022877  -0.005231   0.001738
     4  H    0.393494  -0.025254  -0.022877   0.567301   0.002374  -0.005051
     5  H   -0.025284   0.393168  -0.005231   0.002374   0.579598  -0.024433
     6  C   -0.025100   0.374205   0.001738  -0.005051  -0.024433   4.692067
     7  O    0.000371  -0.022794  -0.000020   0.000025  -0.000363   0.434714
     8  O   -0.002020  -0.026400  -0.000005   0.000657   0.000638   0.275015
     9  H    0.000126   0.003265   0.000002  -0.000121  -0.000134  -0.042781
               7          8          9
     1  C    0.000371  -0.002020   0.000126
     2  C   -0.022794  -0.026400   0.003265
     3  H   -0.000020  -0.000005   0.000002
     4  H    0.000025   0.000657  -0.000121
     5  H   -0.000363   0.000638  -0.000134
     6  C    0.434714   0.275015  -0.042781
     7  O    7.888208  -0.020515  -0.000957
     8  O   -0.020515   7.827504   0.253884
     9  H   -0.000957   0.253884   0.572132
 Mulliken charges:
               1
     1  C   -0.109213
     2  C   -0.084586
     3  H    0.077896
     4  H    0.089453
     5  H    0.079667
     6  C    0.319627
     7  O   -0.278669
     8  O   -0.308757
     9  H    0.214583
 Sum of Mulliken charges =   0.00000
 Mulliken charges with hydrogens summed into heavy atoms:
               1
     1  C    0.058136
     2  C   -0.004919
     6  C    0.319627
     7  O   -0.278669
     8  O   -0.094174
 Electronic spatial extent (au):  <R**2>=            392.7813
 Charge=              0.0000 electrons
 Dipole moment (field-independent basis, Debye):
    X=              0.3536    Y=             -1.1044    Z=              0.0000  Tot=              1.1596
 Quadrupole moment (field-independent basis, Debye-Ang):
   XX=            -25.1303   YY=            -26.8353   ZZ=            -26.3842
   XY=              3.9748   XZ=              0.0000   YZ=              0.0000
 Traceless Quadrupole moment (field-independent basis, Debye-Ang):
   XX=              0.9863   YY=             -0.7187   ZZ=             -0.2676
   XY=              3.9748   XZ=              0.0000   YZ=              0.0000
 Octapole moment (field-independent basis, Debye-Ang**2):
  XXX=              5.9804  YYY=             -1.2812  ZZZ=              0.0000  XYY=              7.0943
  XXY=              6.1296  XXZ=              0.0000  XZZ=              2.1263  YZZ=              5.3424
  YYZ=              0.0000  XYZ=              0.0000
 Hexadecapole moment (field-independent basis, Debye-Ang**3):
 XXXX=           -121.2821 YYYY=           -284.7713 ZZZZ=            -18.2273 XXXY=            -12.8231
 XXXZ=              0.0000 YYYX=             -8.8787 YYYZ=              0.0000 ZZZX=              0.0000
 ZZZY=              0.0000 XXYY=            -61.3476 XXZZ=            -25.9371 YYZZ=            -51.1452
 XXYZ=              0.0000 YYXZ=              0.0000 ZZXY=             -8.1888
 N-N= 1.612458402061D+02 E-N=-9.477542837691D+02  KE= 2.646295863541D+02
 Symmetry A'   KE= 2.534709657551D+02
 Symmetry A"   KE= 1.115862059892D+01
 Orbital energies and kinetic energies (alpha):
                                 1                 2
   1         O               -20.561621         29.104992
   2         O               -20.520992         29.107190
   3         O               -11.325621         15.910452
   4         O               -11.203384         15.899726
   5         O               -11.200963         15.891090
   6         O                -1.380801          2.390989
   7         O                -1.279761          2.746514
   8         O                -1.024964          1.563875
   9         O                -0.820038          1.592990
  10         O                -0.715770          1.436659
  11         O                -0.615613          1.664383
  12         O                -0.603679          1.605441
  13         O                -0.568271          1.784590
  14         O                -0.539868          1.729788
  15         O                -0.502911          1.367115
  16         O                -0.464738          2.175782
  17         O                -0.378885          2.063817
  18         O                -0.349965          2.493695
  19         O                -0.334392          1.785705
  20         V                 0.226085          2.065672
  21         V                 0.390732          2.293915
  22         V                 0.541442          3.183581
  23         V                 0.579570          2.328463
  24         V                 0.650476          3.257637
  25         V                 0.680220          2.724197
  26         V                 0.721238          3.208185
  27         V                 0.858803          3.324749
  28         V                 0.936236          3.297787
  29         V                 1.063722          3.923873
 Total kinetic energy from orbitals= 2.646295863541D+02
 1\1\GINC-HPC\FOpt\RHF\STO-6G\C3H4O2\NAKANO\04-Oct-2021\0\\# hf/sto-6g
 pop=full opt\\CH2CHCOOH molecule : Opt.\\0,1\C,0.0359931624,0.,-0.0169
 190229\C,-0.0041375232,0.,1.2929870765\H,0.9695917966,0.,-0.557647704\
 H,-0.8640681631,0.,-0.6119262942\H,0.891149135,0.,1.8953926022\C,-1.29
 31495679,0.,2.0852019186\O,-1.3812953177,0.,3.3001055903\O,-2.42411934
 88,0.,1.2793106781\H,-3.1766906284,0.,1.9178123858\\Version=ES64L-G16R
 evB.01\State=1-A'\HF=-264.7087436\RMSD=8.455e-09\RMSF=4.183e-05\Dipole
 =0.0522716,0.,-0.4532256\Quadrupole=2.736904,-0.1989478,-2.5379562,0.,
 -1.4760769,0.\PG=CS [SG(C3H4O2)]\\@


 A successful marriage requires falling in love
 many times, always with the same person.
                           -- Mignon McLaughlin
 Job cpu time:       0 days  0 hours  0 minutes  5.3 seconds.
 Elapsed time:       0 days  0 hours  0 minutes  5.1 seconds.
 File lengths (MBytes):  RWF=      6 Int=      0 D2E=      0 Chk=      1 Scr=      1
 Normal termination of Gaussian 16 at Mon Oct  4 00:31:48 2021.
