 Entering Gaussian System, Link 0=/home/apl/G16/g16/g16
 Initial command:
 /home/apl/G16/g16/l1.exe "/home/nakano/results/FrontierOrbital/8/Gau-74373.inp" -scrdir="/home/nakano/results/FrontierOrbital/8/"
 Entering Link 1 = /home/apl/G16/g16/l1.exe PID=     74374.
  
 Copyright (c) 1988-2017, Gaussian, Inc.  All Rights Reserved.
  
 This is part of the Gaussian(R) 16 program.  It is based on
 the Gaussian(R) 09 system (copyright 2009, Gaussian, Inc.),
 the Gaussian(R) 03 system (copyright 2003, Gaussian, Inc.),
 the Gaussian(R) 98 system (copyright 1998, Gaussian, Inc.),
 the Gaussian(R) 94 system (copyright 1995, Gaussian, Inc.),
 the Gaussian 92(TM) system (copyright 1992, Gaussian, Inc.),
 the Gaussian 90(TM) system (copyright 1990, Gaussian, Inc.),
 the Gaussian 88(TM) system (copyright 1988, Gaussian, Inc.),
 the Gaussian 86(TM) system (copyright 1986, Carnegie Mellon
 University), and the Gaussian 82(TM) system (copyright 1983,
 Carnegie Mellon University). Gaussian is a federally registered
 trademark of Gaussian, Inc.
  
 This software contains proprietary and confidential information,
 including trade secrets, belonging to Gaussian, Inc.
  
 This software is provided under written license and may be
 used, copied, transmitted, or stored only in accord with that
 written license.
  
 The following legend is applicable only to US Government
 contracts under FAR:
  
                    RESTRICTED RIGHTS LEGEND
  
 Use, reproduction and disclosure by the US Government is
 subject to restrictions as set forth in subparagraphs (a)
 and (c) of the Commercial Computer Software - Restricted
 Rights clause in FAR 52.227-19.
  
 Gaussian, Inc.
 340 Quinnipiac St., Bldg. 40, Wallingford CT 06492
  
  
 ---------------------------------------------------------------
 Warning -- This program may not be used in any manner that
 competes with the business of Gaussian, Inc. or will provide
 assistance to any competitor of Gaussian, Inc.  The licensee
 of this program is prohibited from giving any competitor of
 Gaussian, Inc. access to this program.  By using this program,
 the user acknowledges that Gaussian, Inc. is engaged in the
 business of creating and licensing software in the field of
 computational chemistry and represents and warrants to the
 licensee that it is not a competitor of Gaussian, Inc. and that
 it will not use this program in any manner prohibited above.
 ---------------------------------------------------------------
  

 Cite this work as:
 Gaussian 16, Revision B.01,
 M. J. Frisch, G. W. Trucks, H. B. Schlegel, G. E. Scuseria, 
 M. A. Robb, J. R. Cheeseman, G. Scalmani, V. Barone, 
 G. A. Petersson, H. Nakatsuji, X. Li, M. Caricato, A. V. Marenich, 
 J. Bloino, B. G. Janesko, R. Gomperts, B. Mennucci, H. P. Hratchian, 
 J. V. Ortiz, A. F. Izmaylov, J. L. Sonnenberg, D. Williams-Young, 
 F. Ding, F. Lipparini, F. Egidi, J. Goings, B. Peng, A. Petrone, 
 T. Henderson, D. Ranasinghe, V. G. Zakrzewski, J. Gao, N. Rega, 
 G. Zheng, W. Liang, M. Hada, M. Ehara, K. Toyota, R. Fukuda, 
 J. Hasegawa, M. Ishida, T. Nakajima, Y. Honda, O. Kitao, H. Nakai, 
 T. Vreven, K. Throssell, J. A. Montgomery, Jr., J. E. Peralta, 
 F. Ogliaro, M. J. Bearpark, J. J. Heyd, E. N. Brothers, K. N. Kudin, 
 V. N. Staroverov, T. A. Keith, R. Kobayashi, J. Normand, 
 K. Raghavachari, A. P. Rendell, J. C. Burant, S. S. Iyengar, 
 J. Tomasi, M. Cossi, J. M. Millam, M. Klene, C. Adamo, R. Cammi, 
 J. W. Ochterski, R. L. Martin, K. Morokuma, O. Farkas, 
 J. B. Foresman, and D. J. Fox, Gaussian, Inc., Wallingford CT, 2016.
 
 ******************************************
 Gaussian 16:  ES64L-G16RevB.01 20-Dec-2017
                 4-Oct-2021 
 ******************************************
 ------------------------
 # hf/sto-6g pop=full opt
 ------------------------
 1/18=20,19=15,38=1/1,3;
 2/9=110,12=2,17=6,18=5,40=1/2;
 3/6=6,11=9,25=1,30=1,71=1/1,2,3;
 4//1;
 5/5=2,38=5/2;
 6/7=3,28=1/1;
 7//1,2,3,16;
 1/18=20,19=15/3(2);
 2/9=110/2;
 99//99;
 2/9=110/2;
 3/6=6,11=9,25=1,30=1,71=1/1,2,3;
 4/5=5,16=3,69=1/1;
 5/5=2,38=5/2;
 7//1,2,3,16;
 1/18=20,19=15/3(-5);
 2/9=110/2;
 6/7=3,19=2,28=1/1;
 99/9=1/99;
 -----------------------------
 CH2CHC-Ph-CH2 molecule : Opt.
 -----------------------------
 Symbolic Z-matrix:
 Charge =  0 Multiplicity = 1
 C1
 C2                   1     1.4 
 C3                   2     1.4      1     120. 
 C4                   3     1.4      2     120.     1     0.       0
 H5                   1     1.1      2     120.     3     0.       0
 H6                   1     1.1      2     120.     3     180.     0
 H7                   2     1.1      3     120.     4     180.     0
 H8                   4     1.1      3     120.     2     0.       0
 H9                   4     1.1      3     120.     2     180.     0
 C10                  3     1.4      2     120.     1     180.     0
 C11                  10    1.4      3     120.     2     0.       0
 C12                  11    1.4      10    120.     3     180.     0
 C13                  12    1.4      11    120.     10    0.       0
 C14                  13    1.4      12    120.     11    0.       0
 C15                  14    1.4      13    120.     12    0.       0
 H16                  11    1.1      10    120.     3     0.       0
 H17                  12    1.1      11    120.     16    0.       0
 H18                  13    1.1      12    120.     17    0.       0
 H19                  14    1.1      13    120.     18    0.       0
 H20                  15    1.1      14    120.     19    0.       0
 

 GradGradGradGradGradGradGradGradGradGradGradGradGradGradGradGradGradGrad
 Berny optimization.
 Initialization pass.
                           ----------------------------
                           !    Initial Parameters    !
                           ! (Angstroms and Degrees)  !
 --------------------------                            --------------------------
 ! Name  Definition              Value          Derivative Info.                !
 --------------------------------------------------------------------------------
 ! R1    R(1,2)                  1.4            estimate D2E/DX2                !
 ! R2    R(1,5)                  1.1            estimate D2E/DX2                !
 ! R3    R(1,6)                  1.1            estimate D2E/DX2                !
 ! R4    R(2,3)                  1.4            estimate D2E/DX2                !
 ! R5    R(2,7)                  1.1            estimate D2E/DX2                !
 ! R6    R(3,4)                  1.4            estimate D2E/DX2                !
 ! R7    R(3,10)                 1.4            estimate D2E/DX2                !
 ! R8    R(4,8)                  1.1            estimate D2E/DX2                !
 ! R9    R(4,9)                  1.1            estimate D2E/DX2                !
 ! R10   R(10,11)                1.4            estimate D2E/DX2                !
 ! R11   R(10,15)                1.4            estimate D2E/DX2                !
 ! R12   R(11,12)                1.4            estimate D2E/DX2                !
 ! R13   R(11,16)                1.1            estimate D2E/DX2                !
 ! R14   R(12,13)                1.4            estimate D2E/DX2                !
 ! R15   R(12,17)                1.1            estimate D2E/DX2                !
 ! R16   R(13,14)                1.4            estimate D2E/DX2                !
 ! R17   R(13,18)                1.1            estimate D2E/DX2                !
 ! R18   R(14,15)                1.4            estimate D2E/DX2                !
 ! R19   R(14,19)                1.1            estimate D2E/DX2                !
 ! R20   R(15,20)                1.1            estimate D2E/DX2                !
 ! A1    A(2,1,5)              120.0            estimate D2E/DX2                !
 ! A2    A(2,1,6)              120.0            estimate D2E/DX2                !
 ! A3    A(5,1,6)              120.0            estimate D2E/DX2                !
 ! A4    A(1,2,3)              120.0            estimate D2E/DX2                !
 ! A5    A(1,2,7)              120.0            estimate D2E/DX2                !
 ! A6    A(3,2,7)              120.0            estimate D2E/DX2                !
 ! A7    A(2,3,4)              120.0            estimate D2E/DX2                !
 ! A8    A(2,3,10)             120.0            estimate D2E/DX2                !
 ! A9    A(4,3,10)             120.0            estimate D2E/DX2                !
 ! A10   A(3,4,8)              120.0            estimate D2E/DX2                !
 ! A11   A(3,4,9)              120.0            estimate D2E/DX2                !
 ! A12   A(8,4,9)              120.0            estimate D2E/DX2                !
 ! A13   A(3,10,11)            120.0            estimate D2E/DX2                !
 ! A14   A(3,10,15)            120.0            estimate D2E/DX2                !
 ! A15   A(11,10,15)           120.0            estimate D2E/DX2                !
 ! A16   A(10,11,12)           120.0            estimate D2E/DX2                !
 ! A17   A(10,11,16)           120.0            estimate D2E/DX2                !
 ! A18   A(12,11,16)           120.0            estimate D2E/DX2                !
 ! A19   A(11,12,13)           120.0            estimate D2E/DX2                !
 ! A20   A(11,12,17)           120.0            estimate D2E/DX2                !
 ! A21   A(13,12,17)           120.0            estimate D2E/DX2                !
 ! A22   A(12,13,14)           120.0            estimate D2E/DX2                !
 ! A23   A(12,13,18)           120.0            estimate D2E/DX2                !
 ! A24   A(14,13,18)           120.0            estimate D2E/DX2                !
 ! A25   A(13,14,15)           120.0            estimate D2E/DX2                !
 ! A26   A(13,14,19)           120.0            estimate D2E/DX2                !
 ! A27   A(15,14,19)           120.0            estimate D2E/DX2                !
 ! A28   A(10,15,14)           120.0            estimate D2E/DX2                !
 ! A29   A(10,15,20)           120.0            estimate D2E/DX2                !
 ! A30   A(14,15,20)           120.0            estimate D2E/DX2                !
 ! D1    D(5,1,2,3)              0.0            estimate D2E/DX2                !
 ! D2    D(5,1,2,7)            180.0            estimate D2E/DX2                !
 ! D3    D(6,1,2,3)            180.0            estimate D2E/DX2                !
 ! D4    D(6,1,2,7)              0.0            estimate D2E/DX2                !
 ! D5    D(1,2,3,4)              0.0            estimate D2E/DX2                !
 ! D6    D(1,2,3,10)           180.0            estimate D2E/DX2                !
 ! D7    D(7,2,3,4)            180.0            estimate D2E/DX2                !
 ! D8    D(7,2,3,10)             0.0            estimate D2E/DX2                !
 ! D9    D(2,3,4,8)              0.0            estimate D2E/DX2                !
 ! D10   D(2,3,4,9)            180.0            estimate D2E/DX2                !
 ! D11   D(10,3,4,8)           180.0            estimate D2E/DX2                !
 ! D12   D(10,3,4,9)             0.0            estimate D2E/DX2                !
 ! D13   D(2,3,10,11)            0.0            estimate D2E/DX2                !
 ! D14   D(2,3,10,15)          180.0            estimate D2E/DX2                !
 ! D15   D(4,3,10,11)          180.0            estimate D2E/DX2                !
 ! D16   D(4,3,10,15)            0.0            estimate D2E/DX2                !
 ! D17   D(3,10,11,12)         180.0            estimate D2E/DX2                !
 ! D18   D(3,10,11,16)           0.0            estimate D2E/DX2                !
 ! D19   D(15,10,11,12)          0.0            estimate D2E/DX2                !
 ! D20   D(15,10,11,16)        180.0            estimate D2E/DX2                !
 ! D21   D(3,10,15,14)         180.0            estimate D2E/DX2                !
 ! D22   D(3,10,15,20)           0.0            estimate D2E/DX2                !
 ! D23   D(11,10,15,14)          0.0            estimate D2E/DX2                !
 ! D24   D(11,10,15,20)        180.0            estimate D2E/DX2                !
 ! D25   D(10,11,12,13)          0.0            estimate D2E/DX2                !
 ! D26   D(10,11,12,17)        180.0            estimate D2E/DX2                !
 ! D27   D(16,11,12,13)        180.0            estimate D2E/DX2                !
 ! D28   D(16,11,12,17)          0.0            estimate D2E/DX2                !
 ! D29   D(11,12,13,14)          0.0            estimate D2E/DX2                !
 ! D30   D(11,12,13,18)        180.0            estimate D2E/DX2                !
 ! D31   D(17,12,13,14)        180.0            estimate D2E/DX2                !
 ! D32   D(17,12,13,18)          0.0            estimate D2E/DX2                !
 ! D33   D(12,13,14,15)          0.0            estimate D2E/DX2                !
 ! D34   D(12,13,14,19)        180.0            estimate D2E/DX2                !
 ! D35   D(18,13,14,15)        180.0            estimate D2E/DX2                !
 ! D36   D(18,13,14,19)          0.0            estimate D2E/DX2                !
 ! D37   D(13,14,15,10)          0.0            estimate D2E/DX2                !
 ! D38   D(13,14,15,20)        180.0            estimate D2E/DX2                !
 ! D39   D(19,14,15,10)        180.0            estimate D2E/DX2                !
 ! D40   D(19,14,15,20)          0.0            estimate D2E/DX2                !
 --------------------------------------------------------------------------------
 Trust Radius=3.00D-01 FncErr=1.00D-07 GrdErr=1.00D-07 EigMax=2.50D+02 EigMin=1.00D-04
 Number of steps in this run=    100 maximum allowed number of steps=    120.
 GradGradGradGradGradGradGradGradGradGradGradGradGradGradGradGradGradGrad

                          Input orientation:                          
 ---------------------------------------------------------------------
 Center     Atomic      Atomic             Coordinates (Angstroms)
 Number     Number       Type             X           Y           Z
 ---------------------------------------------------------------------
      1          6           0        0.000000    0.000000    0.000000
      2          6           0        0.000000    0.000000    1.400000
      3          6           0        1.212436    0.000000    2.100000
      4          6           0        2.424871    0.000000    1.400000
      5          1           0        0.952628    0.000000   -0.550000
      6          1           0       -0.952628    0.000000   -0.550000
      7          1           0       -0.952628    0.000000    1.950000
      8          1           0        2.424871    0.000000    0.300000
      9          1           0        3.377499    0.000000    1.950000
     10          6           0        1.212436    0.000000    3.500000
     11          6           0        0.000000    0.000000    4.200000
     12          6           0        0.000000    0.000000    5.600000
     13          6           0        1.212436    0.000000    6.300000
     14          6           0        2.424871    0.000000    5.600000
     15          6           0        2.424871    0.000000    4.200000
     16          1           0       -0.952628    0.000000    3.650000
     17          1           0       -0.952628    0.000000    6.150000
     18          1           0        1.212436    0.000000    7.400000
     19          1           0        3.377499    0.000000    6.150000
     20          1           0        3.377499    0.000000    3.650000
 ---------------------------------------------------------------------
                    Distance matrix (angstroms):
                    1          2          3          4          5
     1  C    0.000000
     2  C    1.400000   0.000000
     3  C    2.424871   1.400000   0.000000
     4  C    2.800000   2.424871   1.400000   0.000000
     5  H    1.100000   2.170253   2.662705   2.443358   0.000000
     6  H    1.100000   2.170253   3.421988   3.900000   1.905256
     7  H    2.170253   1.100000   2.170253   3.421988   3.143247
     8  H    2.443358   2.662705   2.170253   1.100000   1.700000
     9  H    3.900000   3.421988   2.170253   1.100000   3.482815
    10  C    3.704052   2.424871   1.400000   2.424871   4.058325
    11  C    4.200000   2.800000   2.424871   3.704052   4.844585
    12  C    5.600000   4.200000   3.704052   4.849742   6.223343
    13  C    6.415606   5.047772   4.200000   5.047772   6.854925
    14  C    6.102459   4.849742   3.704052   4.200000   6.323765
    15  C    4.849742   3.704052   2.424871   2.800000   4.972927
    16  H    3.772267   2.443358   2.662705   4.058325   4.611941
    17  H    6.223343   4.844585   4.592385   5.828379   6.965630
    18  H    7.498667   6.121274   5.300000   6.121274   7.954244
    19  H    7.016409   5.828379   4.592385   4.844585   7.125307
    20  H    4.972927   4.058325   2.662705   2.443358   4.849742
                    6          7          8          9         10
     6  H    0.000000
     7  H    2.500000   0.000000
     8  H    3.482815   3.758989   0.000000
     9  H    5.000000   4.330127   1.905256   0.000000
    10  C    4.592385   2.662705   3.421988   2.662705   0.000000
    11  C    4.844585   2.443358   4.592385   4.058325   1.400000
    12  C    6.223343   3.772267   5.828379   4.972927   2.424871
    13  C    7.184010   4.859012   6.121274   4.859012   2.800000
    14  C    7.016409   4.972927   5.300000   3.772267   2.424871
    15  C    5.828379   4.058325   3.900000   2.443358   1.400000
    16  H    4.200000   1.700000   4.757100   4.651881   2.170253
    17  H    6.700000   4.200000   6.754998   6.032412   3.421988
    18  H    8.239539   5.864299   7.202777   5.864299   3.900000
    19  H    7.977468   6.032412   5.927057   4.200000   3.421988
    20  H    6.032412   4.651881   3.482815   1.700000   2.170253
                   11         12         13         14         15
    11  C    0.000000
    12  C    1.400000   0.000000
    13  C    2.424871   1.400000   0.000000
    14  C    2.800000   2.424871   1.400000   0.000000
    15  C    2.424871   2.800000   2.424871   1.400000   0.000000
    16  H    1.100000   2.170253   3.421988   3.900000   3.421988
    17  H    2.170253   1.100000   2.170253   3.421988   3.900000
    18  H    3.421988   2.170253   1.100000   2.170253   3.421988
    19  H    3.900000   3.421988   2.170253   1.100000   2.170253
    20  H    3.421988   3.900000   3.421988   2.170253   1.100000
                   16         17         18         19         20
    16  H    0.000000
    17  H    2.500000   0.000000
    18  H    4.330127   2.500000   0.000000
    19  H    5.000000   4.330127   2.500000   0.000000
    20  H    4.330127   5.000000   4.330127   2.500000   0.000000
 Stoichiometry    C10H10
 Framework group  CS[SG(C10H10)]
 Deg. of freedom    37
 Full point group                 CS      NOp   2
 Largest Abelian subgroup         CS      NOp   2
 Largest concise Abelian subgroup C1      NOp   1
                         Standard orientation:                         
 ---------------------------------------------------------------------
 Center     Atomic      Atomic             Coordinates (Angstroms)
 Number     Number       Type             X           Y           Z
 ---------------------------------------------------------------------
      1          6           0        1.091192    3.370000    0.000000
      2          6           0        1.091192    1.970000    0.000000
      3          6           0       -0.121244    1.270000    0.000000
      4          6           0       -1.333679    1.970000    0.000000
      5          1           0        0.138564    3.920000    0.000000
      6          1           0        2.043820    3.920000    0.000000
      7          1           0        2.043820    1.420000    0.000000
      8          1           0       -1.333679    3.070000    0.000000
      9          1           0       -2.286307    1.420000    0.000000
     10          6           0       -0.121244   -0.130000    0.000000
     11          6           0        1.091192   -0.830000    0.000000
     12          6           0        1.091192   -2.230000    0.000000
     13          6           0       -0.121244   -2.930000    0.000000
     14          6           0       -1.333679   -2.230000    0.000000
     15          6           0       -1.333679   -0.830000    0.000000
     16          1           0        2.043820   -0.280000    0.000000
     17          1           0        2.043820   -2.780000    0.000000
     18          1           0       -0.121244   -4.030000    0.000000
     19          1           0       -2.286307   -2.780000    0.000000
     20          1           0       -2.286307   -0.280000    0.000000
 ---------------------------------------------------------------------
 Rotational constants (GHZ):           3.3956729           0.8838661           0.7013186
 Standard basis: STO-6G (5D, 7F)
 There are    50 symmetry adapted cartesian basis functions of A'  symmetry.
 There are    10 symmetry adapted cartesian basis functions of A"  symmetry.
 There are    50 symmetry adapted basis functions of A'  symmetry.
 There are    10 symmetry adapted basis functions of A"  symmetry.
    60 basis functions,   360 primitive gaussians,    60 cartesian basis functions
    35 alpha electrons       35 beta electrons
       nuclear repulsion energy       461.7586007516 Hartrees.
 NAtoms=   20 NActive=   20 NUniq=   20 SFac= 1.00D+00 NAtFMM=   60 NAOKFM=F Big=F
 Integral buffers will be    131072 words long.
 Raffenetti 1 integral format.
 Two-electron integral symmetry is turned on.
 One-electron integrals computed using PRISM.
 NBasis=    60 RedAO= T EigKep=  1.75D-01  NBF=    50    10
 NBsUse=    60 1.00D-06 EigRej= -1.00D+00 NBFU=    50    10
 ExpMin= 1.00D-01 ExpMax= 7.43D+02 ExpMxC= 1.36D+02 IAcc=3 IRadAn=         5 AccDes= 0.00D+00
 Harris functional with IExCor=  205 and IRadAn=       5 diagonalized for initial guess.
 HarFok:  IExCor=  205 AccDes= 0.00D+00 IRadAn=         5 IDoV= 1 UseB2=F ITyADJ=14
 ICtDFT=  3500011 ScaDFX=  1.000000  1.000000  1.000000  1.000000
 FoFCou: FMM=F IPFlag=           0 FMFlag=      100000 FMFlg1=           0
         NFxFlg=           0 DoJE=T BraDBF=F KetDBF=T FulRan=T
         wScrn=  0.000000 ICntrl=       500 IOpCl=  0 I1Cent=   200000004 NGrid=           0
         NMat0=    1 NMatS0=      1 NMatT0=    0 NMatD0=    1 NMtDS0=    0 NMtDT0=    0
 Petite list used in FoFCou.
 Initial guess orbital symmetries:
       Occupied  (A') (A') (A') (A') (A') (A') (A') (A') (A') (A')
                 (A') (A') (A') (A') (A') (A') (A') (A') (A') (A')
                 (A') (A') (A') (A') (A') (A') (A") (A') (A') (A')
                 (A') (A") (A") (A") (A")
       Virtual   (A") (A") (A") (A") (A") (A') (A') (A') (A') (A')
                 (A') (A') (A') (A') (A') (A') (A') (A') (A') (A')
                 (A') (A') (A') (A') (A')
 The electronic state of the initial guess is 1-A'.
 Keep R1 ints in memory in symmetry-blocked form, NReq=2691229.
 Requested convergence on RMS density matrix=1.00D-08 within 128 cycles.
 Requested convergence on MAX density matrix=1.00D-06.
 Requested convergence on             energy=1.00D-06.
 No special actions if energy rises.
 SCF Done:  E(RHF) =  -383.446927232     A.U. after   13 cycles
            NFock= 13  Conv=0.75D-08     -V/T= 2.0005

 **********************************************************************

            Population analysis using the SCF Density.

 **********************************************************************

 Orbital symmetries:
       Occupied  (A') (A') (A') (A') (A') (A') (A') (A') (A') (A')
                 (A') (A') (A') (A') (A') (A') (A') (A') (A') (A')
                 (A') (A') (A') (A') (A') (A') (A') (A") (A') (A')
                 (A') (A") (A") (A") (A")
       Virtual   (A") (A") (A") (A") (A") (A') (A') (A') (A') (A')
                 (A') (A') (A') (A') (A') (A') (A') (A') (A') (A')
                 (A') (A') (A') (A') (A')
 The electronic state is 1-A'.
 Alpha  occ. eigenvalues --  -11.18660 -11.18491 -11.17890 -11.17871 -11.17771
 Alpha  occ. eigenvalues --  -11.17537 -11.17520 -11.17415 -11.16348 -11.15897
 Alpha  occ. eigenvalues --   -1.10767  -1.04587  -0.96153  -0.95405  -0.89743
 Alpha  occ. eigenvalues --   -0.82268  -0.77014  -0.74525  -0.66916  -0.66554
 Alpha  occ. eigenvalues --   -0.60453  -0.57914  -0.56206  -0.54553  -0.52581
 Alpha  occ. eigenvalues --   -0.49924  -0.47979  -0.47722  -0.45943  -0.42819
 Alpha  occ. eigenvalues --   -0.41508  -0.39700  -0.28695  -0.28028  -0.21227
 Alpha virt. eigenvalues --    0.18727   0.26138   0.27195   0.41209   0.52857
 Alpha virt. eigenvalues --    0.55177   0.56783   0.60264   0.61050   0.65357
 Alpha virt. eigenvalues --    0.68728   0.70329   0.71178   0.75045   0.77380
 Alpha virt. eigenvalues --    0.78980   0.80846   0.87174   0.88992   0.89817
 Alpha virt. eigenvalues --    0.92236   1.00553   1.04131   1.11803   1.16146
     Molecular Orbital Coefficients:
                           1         2         3         4         5
                           O         O         O         O         O
     Eigenvalues --   -11.18660 -11.18491 -11.17890 -11.17871 -11.17771
   1 1   C  1S         -0.00012  -0.00038  -0.00002   0.00001   0.00001
   2        2S         -0.00002  -0.00006  -0.00001   0.00000   0.00000
   3        2PX         0.00003  -0.00002   0.00000   0.00000   0.00000
   4        2PY         0.00002   0.00008   0.00000   0.00000   0.00000
   5        2PZ         0.00000   0.00000   0.00000   0.00000   0.00000
   6 2   C  1S          0.00119   0.02151  -0.00040   0.00015   0.00024
   7        2S         -0.00054  -0.00406  -0.00002   0.00000   0.00001
   8        2PX         0.00037   0.00260   0.00000   0.00001   0.00000
   9        2PY         0.00021   0.00153   0.00003  -0.00001  -0.00001
  10        2PZ         0.00000   0.00000   0.00000   0.00000   0.00000
  11 3   C  1S          0.13338   0.98586   0.00046   0.00019  -0.00031
  12        2S         -0.00138   0.02415  -0.00001   0.00000  -0.00006
  13        2PX         0.00003   0.00019  -0.00001   0.00003   0.00000
  14        2PY         0.00301  -0.00061   0.00003   0.00001   0.00003
  15        2PZ         0.00000   0.00000   0.00000   0.00000   0.00000
  16 4   C  1S          0.00115   0.01363  -0.00004  -0.00010   0.00010
  17        2S         -0.00051  -0.00399  -0.00002  -0.00001   0.00001
  18        2PX        -0.00036  -0.00250  -0.00001   0.00001   0.00000
  19        2PY         0.00019   0.00145   0.00001   0.00002  -0.00002
  20        2PZ         0.00000   0.00000   0.00000   0.00000   0.00000
  21 5   H  1S         -0.00001  -0.00009   0.00000   0.00000   0.00000
  22 6   H  1S         -0.00001  -0.00002   0.00000   0.00000   0.00000
  23 7   H  1S         -0.00009  -0.00009   0.00001   0.00000   0.00000
  24 8   H  1S         -0.00003  -0.00008   0.00000  -0.00001   0.00000
  25 9   H  1S         -0.00009  -0.00007   0.00000   0.00001   0.00000
  26 10  C  1S          0.98558  -0.13270   0.00001  -0.00011   0.00399
  27        2S          0.02283  -0.00772  -0.00035  -0.00017   0.00030
  28        2PX         0.00001  -0.00003  -0.00012   0.00033  -0.00002
  29        2PY        -0.00021  -0.00307   0.00017   0.00008   0.00005
  30        2PZ         0.00000   0.00000   0.00000   0.00000   0.00000
  31 11  C  1S          0.02577  -0.00579   0.06746  -0.04346  -0.03343
  32        2S         -0.00383   0.00052  -0.00230   0.00078   0.00045
  33        2PX         0.00255  -0.00034   0.00007   0.00011  -0.00006
  34        2PY        -0.00149   0.00020   0.00259  -0.00117  -0.00079
  35        2PZ         0.00000   0.00000   0.00000   0.00000   0.00000
  36 12  C  1S         -0.00108  -0.00005   0.86270  -0.41704  -0.25525
  37        2S         -0.00007   0.00000   0.01803  -0.01011  -0.00984
  38        2PX        -0.00004   0.00003   0.00028   0.00076   0.00263
  39        2PY        -0.00009   0.00000   0.00068   0.00020   0.00128
  40        2PZ         0.00000   0.00000   0.00000   0.00000   0.00000
  41 13  C  1S         -0.00278   0.00039   0.35342   0.16736   0.91499
  42        2S         -0.00016   0.00003   0.00278   0.00178   0.02355
  43        2PX         0.00000   0.00000  -0.00133   0.00333  -0.00009
  44        2PY        -0.00015   0.00002  -0.00160  -0.00059   0.00168
  45        2PZ         0.00000   0.00000   0.00000   0.00000   0.00000
  46 14  C  1S         -0.00103  -0.00006   0.34185   0.88313  -0.29155
  47        2S         -0.00007   0.00000   0.00626   0.01921  -0.01065
  48        2PX         0.00003  -0.00003  -0.00067   0.00023  -0.00265
  49        2PY        -0.00009   0.00001   0.00060   0.00036   0.00129
  50        2PZ         0.00000   0.00000   0.00000   0.00000   0.00000
  51 15  C  1S          0.02610  -0.00586   0.02201   0.08358  -0.04121
  52        2S         -0.00381   0.00050  -0.00108  -0.00195   0.00043
  53        2PX        -0.00255   0.00033  -0.00012   0.00004   0.00005
  54        2PY        -0.00149   0.00020   0.00108   0.00258  -0.00089
  55        2PZ         0.00000   0.00000   0.00000   0.00000   0.00000
  56 16  H  1S         -0.00014  -0.00006  -0.00035   0.00017   0.00015
  57 17  H  1S         -0.00001  -0.00001  -0.00373   0.00176   0.00106
  58 18  H  1S         -0.00002   0.00000  -0.00158  -0.00074  -0.00389
  59 19  H  1S         -0.00001  -0.00001  -0.00150  -0.00379   0.00121
  60 20  H  1S         -0.00014  -0.00006  -0.00015  -0.00039   0.00018
                           6         7         8         9        10
                           O         O         O         O         O
     Eigenvalues --   -11.17537 -11.17520 -11.17415 -11.16348 -11.15897
   1 1   C  1S          0.00002  -0.00058   0.03364   0.99481   0.00606
   2        2S         -0.00001   0.00002  -0.00356   0.02223  -0.00002
   3        2PX         0.00000   0.00000   0.00009  -0.00001   0.00019
   4        2PY         0.00001  -0.00002   0.00291  -0.00081   0.00008
   5        2PZ         0.00000   0.00000   0.00000   0.00000   0.00000
   6 2   C  1S          0.00176  -0.01710   0.99434  -0.03325   0.00113
   7        2S          0.00003  -0.00054   0.02294  -0.00508   0.00012
   8        2PX         0.00001  -0.00001  -0.00092   0.00005  -0.00003
   9        2PY         0.00001   0.00020   0.00010  -0.00294  -0.00001
  10        2PZ         0.00000   0.00000   0.00000   0.00000   0.00000
  11 3   C  1S          0.00203   0.00290  -0.02092   0.00122  -0.01329
  12        2S          0.00020   0.00034  -0.00511   0.00027  -0.00470
  13        2PX        -0.00005   0.00008  -0.00264   0.00005   0.00255
  14        2PY        -0.00006  -0.00004  -0.00157   0.00007  -0.00147
  15        2PZ         0.00000   0.00000   0.00000   0.00000   0.00000
  16 4   C  1S         -0.00132  -0.00022  -0.00159  -0.00594   0.99527
  17        2S         -0.00018  -0.00005   0.00011  -0.00029   0.02224
  18        2PX         0.00002   0.00000   0.00005  -0.00017   0.00069
  19        2PY         0.00019   0.00005  -0.00002  -0.00012  -0.00040
  20        2PZ         0.00000   0.00000   0.00000   0.00000   0.00000
  21 5   H  1S          0.00000   0.00000  -0.00015  -0.00430   0.00013
  22 6   H  1S          0.00000   0.00000  -0.00020  -0.00427  -0.00007
  23 7   H  1S         -0.00003   0.00023  -0.00429   0.00010  -0.00002
  24 8   H  1S         -0.00004  -0.00001  -0.00008   0.00018  -0.00430
  25 9   H  1S          0.00016   0.00002  -0.00001  -0.00002  -0.00431
  26 10  C  1S         -0.02312  -0.02862   0.00128   0.00001   0.00068
  27        2S         -0.00452  -0.00566   0.00011  -0.00002   0.00014
  28        2PX         0.00282  -0.00225  -0.00001  -0.00002  -0.00002
  29        2PY         0.00137   0.00172   0.00008  -0.00002   0.00003
  30        2PZ         0.00000   0.00000   0.00000   0.00000   0.00000
  31 11  C  1S         -0.11021   0.98482   0.01733   0.00000   0.00016
  32        2S         -0.00243   0.02330   0.00026   0.00001  -0.00002
  33        2PX        -0.00001  -0.00086  -0.00004   0.00000   0.00000
  34        2PY         0.00010  -0.00062  -0.00022  -0.00001  -0.00003
  35        2PZ         0.00000   0.00000   0.00000   0.00000   0.00000
  36 12  C  1S          0.01493  -0.08402  -0.00100   0.00001   0.00002
  37        2S          0.00065  -0.00642  -0.00014   0.00000  -0.00001
  38        2PX         0.00015   0.00023   0.00001   0.00000   0.00000
  39        2PY         0.00028  -0.00299  -0.00008   0.00000  -0.00001
  40        2PZ         0.00000   0.00000   0.00000   0.00000   0.00000
  41 13  C  1S          0.01452   0.01597   0.00013   0.00000  -0.00003
  42        2S          0.00076   0.00085   0.00001   0.00000   0.00000
  43        2PX        -0.00026   0.00019   0.00000   0.00000   0.00000
  44        2PY         0.00017   0.00019   0.00000   0.00000   0.00000
  45        2PZ         0.00000   0.00000   0.00000   0.00000   0.00000
  46 14  C  1S         -0.09387  -0.00478   0.00016  -0.00001   0.00002
  47        2S         -0.00662  -0.00079  -0.00001   0.00000  -0.00005
  48        2PX        -0.00020  -0.00020   0.00000   0.00000   0.00000
  49        2PY        -0.00297  -0.00039  -0.00001   0.00000  -0.00004
  50        2PZ         0.00000   0.00000   0.00000   0.00000   0.00000
  51 15  C  1S          0.98415   0.11023   0.00026   0.00003   0.00146
  52        2S          0.02326   0.00278  -0.00001  -0.00001  -0.00011
  53        2PX         0.00084   0.00019   0.00000  -0.00001   0.00003
  54        2PY        -0.00066  -0.00005  -0.00003   0.00000  -0.00021
  55        2PZ         0.00000   0.00000   0.00000   0.00000   0.00000
  56 16  H  1S          0.00046  -0.00425   0.00008  -0.00001   0.00000
  57 17  H  1S         -0.00009   0.00031   0.00000   0.00000   0.00000
  58 18  H  1S         -0.00007  -0.00008   0.00000   0.00000   0.00000
  59 19  H  1S          0.00035  -0.00002   0.00000   0.00000   0.00000
  60 20  H  1S         -0.00423  -0.00049   0.00000   0.00000   0.00015
                          11        12        13        14        15
                           O         O         O         O         O
     Eigenvalues --    -1.10767  -1.04587  -0.96153  -0.95405  -0.89743
   1 1   C  1S         -0.02268  -0.06085  -0.09611   0.05575   0.09583
   2        2S          0.06066   0.16648   0.27328  -0.15818  -0.28261
   3        2PX        -0.00394  -0.00947  -0.00349   0.00560  -0.02091
   4        2PY        -0.02283  -0.05211  -0.05879   0.02986   0.04015
   5        2PZ         0.00000   0.00000   0.00000   0.00000   0.00000
   6 2   C  1S         -0.05467  -0.10438  -0.09722   0.04409   0.06865
   7        2S          0.14297   0.28107   0.27232  -0.12491  -0.20006
   8        2PX        -0.03803  -0.05929  -0.00230   0.01036  -0.06443
   9        2PY        -0.01911  -0.00303   0.06140  -0.05182  -0.07412
  10        2PZ         0.00000   0.00000   0.00000   0.00000   0.00000
  11 3   C  1S         -0.09954  -0.12154   0.01047   0.00446  -0.07524
  12        2S          0.25802   0.32346  -0.02906  -0.01294   0.21745
  13        2PX         0.00773   0.02006   0.07376   0.00957  -0.14417
  14        2PY        -0.03863   0.03228   0.10166  -0.07805   0.05541
  15        2PZ         0.00000   0.00000   0.00000   0.00000   0.00000
  16 4   C  1S         -0.04415  -0.07005   0.01339   0.02783  -0.14219
  17        2S          0.11757   0.19153  -0.03783  -0.07754   0.41614
  18        2PX         0.03603   0.05651   0.00875  -0.01113   0.03963
  19        2PY        -0.02502  -0.02495   0.02949  -0.00227  -0.03280
  20        2PZ         0.00000   0.00000   0.00000   0.00000   0.00000
  21 5   H  1S          0.01290   0.03981   0.07088  -0.04510  -0.06604
  22 6   H  1S          0.00924   0.03050   0.06644  -0.03865  -0.08876
  23 7   H  1S          0.02919   0.05787   0.06878  -0.01779  -0.07758
  24 8   H  1S          0.02059   0.04371   0.00525  -0.02767   0.11617
  25 9   H  1S          0.02367   0.03744  -0.02561  -0.02088   0.12552
  26 10  C  1S         -0.12908  -0.02060   0.08960  -0.06447   0.04318
  27        2S          0.33414   0.05534  -0.24919   0.18011  -0.12527
  28        2PX         0.00204   0.00384   0.08458   0.11837  -0.01563
  29        2PY        -0.00012   0.10034   0.00078  -0.01135   0.09774
  30        2PZ         0.00000   0.00000   0.00000   0.00000   0.00000
  31 11  C  1S         -0.09109   0.03570  -0.02935  -0.13261   0.03885
  32        2S          0.23833  -0.09492   0.08137   0.37502  -0.11048
  33        2PX        -0.05647   0.00537   0.04814  -0.02315   0.03358
  34        2PY        -0.00098   0.06050  -0.08472  -0.01063  -0.05703
  35        2PZ         0.00000   0.00000   0.00000   0.00000   0.00000
  36 12  C  1S         -0.06931   0.08075  -0.10548  -0.06693  -0.05173
  37        2S          0.18126  -0.21711   0.29791   0.18999   0.15092
  38        2PX        -0.03461   0.04949  -0.03683   0.03993  -0.03296
  39        2PY         0.03035  -0.00119  -0.01280   0.09762  -0.06350
  40        2PZ         0.00000   0.00000   0.00000   0.00000   0.00000
  41 13  C  1S         -0.06412   0.09490  -0.08541   0.06285  -0.07011
  42        2S          0.16702  -0.25591   0.24099  -0.17800   0.20422
  43        2PX         0.00014   0.00066   0.06202   0.10620   0.04290
  44        2PY         0.04234  -0.04981   0.02116  -0.01366  -0.00348
  45        2PZ         0.00000   0.00000   0.00000   0.00000   0.00000
  46 14  C  1S         -0.06888   0.08228   0.01296   0.13116   0.01436
  47        2S          0.18004  -0.22134  -0.03726  -0.37179  -0.04001
  48        2PX         0.03466  -0.04941   0.04737  -0.02213   0.03931
  49        2PY         0.02981  -0.00269  -0.08645  -0.01794  -0.07867
  50        2PZ         0.00000   0.00000   0.00000   0.00000   0.00000
  51 15  C  1S         -0.08970   0.03924   0.10386   0.07174   0.06260
  52        2S          0.23480  -0.10425  -0.29242  -0.20211  -0.18287
  53        2PX         0.05640  -0.00535  -0.03728   0.04096  -0.02805
  54        2PY        -0.00201   0.05900  -0.03392   0.09423   0.02124
  55        2PZ         0.00000   0.00000   0.00000   0.00000   0.00000
  56 16  H  1S          0.04393  -0.01054   0.02713   0.10335  -0.04008
  57 17  H  1S          0.02901  -0.04179   0.07729   0.05054   0.04967
  58 18  H  1S          0.02662  -0.04954   0.06228  -0.04726   0.06700
  59 19  H  1S          0.02880  -0.04263  -0.00992  -0.09889  -0.01092
  60 20  H  1S          0.04266  -0.01391  -0.08347  -0.05760  -0.03498
                          16        17        18        19        20
                           O         O         O         O         O
     Eigenvalues --    -0.82268  -0.77014  -0.74525  -0.66916  -0.66554
   1 1   C  1S         -0.09373   0.04581   0.07615  -0.05181   0.00897
   2        2S          0.28254  -0.14378  -0.24174   0.17448  -0.02894
   3        2PX        -0.01101  -0.02028   0.00631   0.00862   0.13886
   4        2PY         0.04255  -0.02726  -0.11580   0.15678  -0.04577
   5        2PZ         0.00000   0.00000   0.00000   0.00000   0.00000
   6 2   C  1S          0.04941  -0.01586  -0.07894   0.06785  -0.03351
   7        2S         -0.14753   0.04491   0.24719  -0.21806   0.11529
   8        2PX         0.04142  -0.01168  -0.02015  -0.05724   0.26929
   9        2PY         0.16835  -0.05982  -0.10206   0.01057  -0.03200
  10        2PZ         0.00000   0.00000   0.00000   0.00000   0.00000
  11 3   C  1S          0.06991   0.00969  -0.02628  -0.05757   0.06699
  12        2S         -0.20621  -0.02879   0.08016   0.17800  -0.21691
  13        2PX        -0.16712   0.02082   0.10067  -0.06327  -0.02922
  14        2PY         0.08001   0.13827   0.09538  -0.15783  -0.11454
  15        2PZ         0.00000   0.00000   0.00000   0.00000   0.00000
  16 4   C  1S         -0.09210  -0.06008   0.03401   0.04229  -0.03969
  17        2S          0.27545   0.19007  -0.10809  -0.14112   0.13493
  18        2PX        -0.04813  -0.00890   0.03126   0.06751  -0.21834
  19        2PY         0.02764   0.05672  -0.03167  -0.11769  -0.03895
  20        2PZ         0.00000   0.00000   0.00000   0.00000   0.00000
  21 5   H  1S          0.12760  -0.04420  -0.14222   0.11314  -0.11582
  22 6   H  1S          0.10756  -0.07181  -0.12713   0.13438   0.05326
  23 7   H  1S         -0.08053   0.04480   0.11229  -0.12588   0.24551
  24 8   H  1S          0.12505   0.10226  -0.07342  -0.13470   0.02120
  25 9   H  1S          0.12386   0.05360  -0.03749  -0.05599   0.22590
  26 10  C  1S          0.02511   0.07057   0.06697   0.00679   0.00071
  27        2S         -0.07144  -0.21197  -0.20449  -0.01736  -0.00735
  28        2PX        -0.09178   0.17024  -0.13147   0.00328  -0.00533
  29        2PY        -0.13439  -0.05883   0.02362   0.26191   0.02670
  30        2PZ         0.00000   0.00000   0.00000   0.00000   0.00000
  31 11  C  1S         -0.02868  -0.09954   0.04063  -0.00645  -0.01625
  32        2S          0.08753   0.30341  -0.12628   0.02857   0.05913
  33        2PX         0.02016   0.09117   0.10663   0.17225   0.11205
  34        2PY        -0.11407   0.01838  -0.14421   0.00167   0.13287
  35        2PZ         0.00000   0.00000   0.00000   0.00000   0.00000
  36 12  C  1S         -0.05284   0.03680  -0.08737  -0.02986   0.02843
  37        2S          0.15581  -0.11233   0.27245   0.10454  -0.08820
  38        2PX         0.05163   0.07693   0.09346   0.19490   0.02464
  39        2PY         0.06943   0.18037  -0.03494  -0.02769  -0.07069
  40        2PZ         0.00000   0.00000   0.00000   0.00000   0.00000
  41 13  C  1S          0.06518   0.06482   0.05225   0.02496  -0.04143
  42        2S         -0.19603  -0.19819  -0.16048  -0.07354   0.13948
  43        2PX         0.07963  -0.15956   0.14402  -0.03165  -0.00466
  44        2PY         0.03105   0.04553   0.03502  -0.09634  -0.16174
  45        2PZ         0.00000   0.00000   0.00000   0.00000   0.00000
  46 14  C  1S          0.03679  -0.09870   0.01682  -0.04150   0.02690
  47        2S         -0.11115   0.30206  -0.05061   0.14246  -0.08316
  48        2PX        -0.04335  -0.08540  -0.08991  -0.19083  -0.02209
  49        2PY         0.11287   0.00205   0.16207  -0.09083  -0.07837
  50        2PZ         0.00000   0.00000   0.00000   0.00000   0.00000
  51 15  C  1S         -0.06743   0.02813  -0.08246   0.01621  -0.01415
  52        2S          0.19781  -0.08547   0.25678  -0.04602   0.05178
  53        2PX        -0.01464  -0.08811  -0.11626  -0.16218  -0.10357
  54        2PY         0.03182  -0.18579  -0.01380   0.01719   0.13550
  55        2PZ         0.00000   0.00000   0.00000   0.00000   0.00000
  56 16  H  1S          0.00128   0.17532  -0.02521   0.09970   0.16489
  57 17  H  1S          0.06150  -0.05645   0.16596   0.16684  -0.00096
  58 18  H  1S         -0.08562  -0.10189  -0.08492   0.03070   0.17000
  59 19  H  1S         -0.04884   0.15733  -0.02259   0.20266   0.00232
  60 20  H  1S          0.09652  -0.03895   0.15706   0.07704   0.15522
                          21        22        23        24        25
                           O         O         O         O         O
     Eigenvalues --    -0.60453  -0.57914  -0.56206  -0.54553  -0.52581
   1 1   C  1S         -0.00762  -0.00101   0.01219   0.00751  -0.00229
   2        2S          0.02487  -0.00197  -0.05009  -0.02360   0.00319
   3        2PX         0.24747  -0.02353  -0.04051   0.01946   0.28395
   4        2PY        -0.03839  -0.13518  -0.22025   0.14171  -0.07664
   5        2PZ         0.00000   0.00000   0.00000   0.00000   0.00000
   6 2   C  1S         -0.00833  -0.00683  -0.03095   0.01939   0.01766
   7        2S          0.03665   0.02258   0.10442  -0.06422  -0.06563
   8        2PX         0.18756  -0.07981   0.04310   0.11286   0.01077
   9        2PY         0.03862   0.14988   0.16446  -0.12726   0.12628
  10        2PZ         0.00000   0.00000   0.00000   0.00000   0.00000
  11 3   C  1S         -0.01882  -0.01885   0.03681  -0.00625  -0.01899
  12        2S          0.06979   0.06027  -0.12141   0.02065   0.07113
  13        2PX        -0.16305  -0.15804  -0.04981  -0.07353  -0.19110
  14        2PY        -0.11505   0.16923   0.02173  -0.00778   0.16874
  15        2PZ         0.00000   0.00000   0.00000   0.00000   0.00000
  16 4   C  1S         -0.01491   0.02138  -0.00845  -0.00833  -0.02503
  17        2S          0.04968  -0.08520   0.02724   0.02847   0.08341
  18        2PX        -0.02818   0.17968   0.01468   0.13247   0.23165
  19        2PY        -0.21030  -0.18071   0.10158   0.11917  -0.07677
  20        2PZ         0.00000   0.00000   0.00000   0.00000   0.00000
  21 5   H  1S         -0.19369  -0.06446  -0.07592   0.06189  -0.26039
  22 6   H  1S          0.16054  -0.07215  -0.14725   0.06634   0.18988
  23 7   H  1S          0.10660  -0.08860  -0.00181   0.14506  -0.06691
  24 8   H  1S         -0.16991  -0.19562   0.09671   0.12329  -0.07654
  25 9   H  1S          0.09958  -0.07420  -0.05626  -0.17047  -0.12860
  26 10  C  1S         -0.00425   0.04042  -0.06136   0.00563   0.00552
  27        2S          0.00755  -0.13278   0.21361  -0.01960  -0.01386
  28        2PX        -0.08029  -0.18075  -0.12965  -0.20471   0.15540
  29        2PY         0.08947  -0.06734  -0.14166   0.02532  -0.12819
  30        2PZ         0.00000   0.00000   0.00000   0.00000   0.00000
  31 11  C  1S          0.02450  -0.05048   0.01380   0.02373  -0.02209
  32        2S         -0.08631   0.17624  -0.04699  -0.07730   0.07969
  33        2PX        -0.03410   0.18570  -0.08914   0.28210  -0.07991
  34        2PY        -0.17559  -0.12223  -0.06139   0.09538   0.17276
  35        2PZ         0.00000   0.00000   0.00000   0.00000   0.00000
  36 12  C  1S         -0.03164   0.03789  -0.01054   0.01558   0.01817
  37        2S          0.10346  -0.13269   0.04217  -0.05184  -0.06455
  38        2PX        -0.01242  -0.02343   0.28005   0.18735  -0.03379
  39        2PY         0.11523   0.24117  -0.01331  -0.10273  -0.14663
  40        2PZ         0.00000   0.00000   0.00000   0.00000   0.00000
  41 13  C  1S          0.03228  -0.03417   0.03440  -0.00386   0.00184
  42        2S         -0.11454   0.11914  -0.11575   0.01326  -0.00261
  43        2PX        -0.08845  -0.17741  -0.11231  -0.11409   0.19362
  44        2PY         0.24352  -0.08810  -0.20091   0.02178  -0.17911
  45        2PZ         0.00000   0.00000   0.00000   0.00000   0.00000
  46 14  C  1S         -0.04230   0.02905  -0.01397  -0.01354   0.00658
  47        2S          0.14045  -0.10098   0.05413   0.04362  -0.02274
  48        2PX         0.06136   0.14995  -0.16060   0.23281  -0.14462
  49        2PY        -0.06688  -0.11476  -0.19543   0.12420   0.22124
  50        2PZ         0.00000   0.00000   0.00000   0.00000   0.00000
  51 15  C  1S          0.05089  -0.02284   0.01559  -0.02704  -0.01130
  52        2S         -0.17850   0.07772  -0.05510   0.08935   0.03583
  53        2PX         0.12313  -0.00706   0.23821   0.23716  -0.00595
  54        2PY        -0.04188   0.18665   0.11444  -0.09956  -0.21801
  55        2PZ         0.00000   0.00000   0.00000   0.00000   0.00000
  56 16  H  1S         -0.12020   0.15453  -0.12249   0.24327   0.04140
  57 17  H  1S         -0.00281  -0.17886   0.22899   0.15982   0.00601
  58 18  H  1S         -0.24024   0.12895   0.11061  -0.01217   0.16006
  59 19  H  1S          0.05244  -0.10754   0.22438  -0.20734   0.00128
  60 20  H  1S         -0.16399   0.11647  -0.16776  -0.20676  -0.08854
                          26        27        28        29        30
                           O         O         O         O         O
     Eigenvalues --    -0.49924  -0.47979  -0.47722  -0.45943  -0.42819
   1 1   C  1S         -0.02243  -0.00008   0.00000  -0.00609   0.00956
   2        2S          0.07551   0.00675   0.00000   0.01437  -0.03165
   3        2PX        -0.20686   0.17411   0.00000   0.23912   0.02824
   4        2PY        -0.24221   0.13910   0.00000  -0.23310   0.14883
   5        2PZ         0.00000   0.00000   0.08689   0.00000   0.00000
   6 2   C  1S         -0.00709  -0.00971   0.00000   0.00641  -0.00075
   7        2S          0.02126   0.03163   0.00000  -0.03507   0.00236
   8        2PX        -0.07942  -0.25767   0.00000  -0.12574  -0.08392
   9        2PY         0.25971  -0.14940   0.00000   0.23980  -0.14023
  10        2PZ         0.00000   0.00000   0.16276   0.00000   0.00000
  11 3   C  1S          0.01537  -0.01575   0.00000   0.00217   0.01495
  12        2S         -0.05658   0.06072   0.00000  -0.00813  -0.05817
  13        2PX        -0.04021   0.28059   0.00000   0.10360  -0.00172
  14        2PY        -0.06849   0.11597   0.00000  -0.11674   0.32924
  15        2PZ         0.00000   0.00000   0.29571   0.00000   0.00000
  16 4   C  1S          0.00174   0.00066   0.00000   0.00798  -0.00572
  17        2S         -0.00662   0.00530   0.00000  -0.02468   0.01569
  18        2PX        -0.17704  -0.21703   0.00000  -0.00094   0.10085
  19        2PY        -0.24304  -0.07214   0.00000   0.30821  -0.11946
  20        2PZ         0.00000   0.00000   0.15495   0.00000   0.00000
  21 5   H  1S          0.04792  -0.10602   0.00000  -0.28179   0.01328
  22 6   H  1S         -0.24714   0.22075   0.00000   0.10129   0.09334
  23 7   H  1S         -0.14933  -0.16307   0.00000  -0.24638   0.03579
  24 8   H  1S         -0.21516  -0.09879   0.00000   0.25684  -0.13004
  25 9   H  1S          0.24097   0.22577   0.00000  -0.13631   0.02247
  26 10  C  1S         -0.00699   0.01227   0.00000  -0.01447   0.00078
  27        2S          0.02286  -0.04346   0.00000   0.05578  -0.00593
  28        2PX         0.09310   0.05515   0.00000   0.06169   0.02326
  29        2PY         0.04324  -0.11505   0.00000   0.16744  -0.32158
  30        2PZ         0.00000   0.00000   0.39410   0.00000   0.00000
  31 11  C  1S          0.00369  -0.00302   0.00000   0.00235   0.00348
  32        2S         -0.00827   0.00287   0.00000  -0.00545  -0.01017
  33        2PX         0.06950  -0.08113   0.00000   0.06720  -0.07540
  34        2PY         0.23024  -0.09345   0.00000   0.09729   0.28054
  35        2PZ         0.00000   0.00000   0.30036   0.00000   0.00000
  36 12  C  1S          0.01168   0.01227   0.00000  -0.00083   0.00482
  37        2S         -0.03781  -0.04000   0.00000   0.00763  -0.01154
  38        2PX         0.08621   0.26290   0.00000   0.04034   0.01413
  39        2PY        -0.20998   0.10144   0.00000  -0.06726  -0.28406
  40        2PZ         0.00000   0.00000   0.24431   0.00000   0.00000
  41 13  C  1S         -0.00077   0.00795   0.00000  -0.01469  -0.00381
  42        2S          0.00045  -0.02476   0.00000   0.05007   0.00277
  43        2PX        -0.00100  -0.22416   0.00000  -0.11480  -0.02529
  44        2PY         0.08804  -0.17074   0.00000   0.18225   0.22946
  45        2PZ         0.00000   0.00000   0.22403   0.00000   0.00000
  46 14  C  1S         -0.02239  -0.00009   0.00000  -0.00449   0.00437
  47        2S          0.07759  -0.00675   0.00000   0.01470  -0.01147
  48        2PX         0.12189   0.16718   0.00000   0.16528   0.02842
  49        2PY         0.12817   0.05763   0.00000  -0.10188  -0.29152
  50        2PZ         0.00000   0.00000   0.24260   0.00000   0.00000
  51 15  C  1S          0.01272  -0.01366   0.00000  -0.00062   0.00391
  52        2S         -0.04838   0.04978   0.00000   0.01203  -0.01011
  53        2PX         0.04669   0.04733   0.00000  -0.16471   0.02902
  54        2PY        -0.16412  -0.07255   0.00000   0.11728   0.28257
  55        2PZ         0.00000   0.00000   0.29596   0.00000   0.00000
  56 16  H  1S          0.13006  -0.13411   0.00000   0.04879   0.09566
  57 17  H  1S          0.15001   0.15376   0.00000   0.07315   0.16488
  58 18  H  1S         -0.08358   0.15595   0.00000  -0.16102  -0.25198
  59 19  H  1S         -0.11910  -0.17459   0.00000  -0.08903   0.12806
  60 20  H  1S         -0.09716  -0.00689   0.00000   0.17521   0.13831
                          31        32        33        34        35
                           O         O         O         O         O
     Eigenvalues --    -0.41508  -0.39700  -0.28695  -0.28028  -0.21227
   1 1   C  1S          0.00332   0.00000   0.00000   0.00000   0.00000
   2        2S         -0.01380   0.00000   0.00000   0.00000   0.00000
   3        2PX        -0.10121   0.00000   0.00000   0.00000   0.00000
   4        2PY         0.00651   0.00000   0.00000   0.00000   0.00000
   5        2PZ         0.00000   0.25519   0.43408  -0.09052  -0.38562
   6 2   C  1S          0.00899   0.00000   0.00000   0.00000   0.00000
   7        2S         -0.02764   0.00000   0.00000   0.00000   0.00000
   8        2PX         0.25481   0.00000   0.00000   0.00000   0.00000
   9        2PY         0.00554   0.00000   0.00000   0.00000   0.00000
  10        2PZ         0.00000   0.37428   0.41443  -0.08324  -0.23857
  11 3   C  1S          0.00137   0.00000   0.00000   0.00000   0.00000
  12        2S         -0.00587   0.00000   0.00000   0.00000   0.00000
  13        2PX        -0.22682   0.00000   0.00000   0.00000   0.00000
  14        2PY        -0.02187   0.00000   0.00000   0.00000   0.00000
  15        2PZ         0.00000   0.40831  -0.07035   0.00275   0.36126
  16 4   C  1S         -0.00883   0.00000   0.00000   0.00000   0.00000
  17        2S          0.02679   0.00000   0.00000   0.00000   0.00000
  18        2PX         0.21450   0.00000   0.00000   0.00000   0.00000
  19        2PY        -0.04453   0.00000   0.00000   0.00000   0.00000
  20        2PZ         0.00000   0.27330  -0.08356  -0.00031   0.56736
  21 5   H  1S          0.10855   0.00000   0.00000   0.00000   0.00000
  22 6   H  1S         -0.10413   0.00000   0.00000   0.00000   0.00000
  23 7   H  1S          0.18871   0.00000   0.00000   0.00000   0.00000
  24 8   H  1S         -0.01002   0.00000   0.00000   0.00000   0.00000
  25 9   H  1S         -0.13561   0.00000   0.00000   0.00000   0.00000
  26 10  C  1S          0.00051   0.00000   0.00000   0.00000   0.00000
  27        2S         -0.00184   0.00000   0.00000   0.00000   0.00000
  28        2PX         0.30629   0.00000   0.00000   0.00000   0.00000
  29        2PY         0.01439   0.00000   0.00000   0.00000   0.00000
  30        2PZ         0.00000   0.05954  -0.39144   0.08881  -0.25704
  31 11  C  1S         -0.00813   0.00000   0.00000   0.00000   0.00000
  32        2S          0.02014   0.00000   0.00000   0.00000   0.00000
  33        2PX        -0.29225   0.00000   0.00000   0.00000   0.00000
  34        2PY         0.00175   0.00000   0.00000   0.00000   0.00000
  35        2PZ         0.00000  -0.11431  -0.07492   0.49397  -0.21938
  36 12  C  1S          0.00433   0.00000   0.00000   0.00000   0.00000
  37        2S         -0.00806   0.00000   0.00000   0.00000   0.00000
  38        2PX         0.22054   0.00000   0.00000   0.00000   0.00000
  39        2PY         0.03482   0.00000   0.00000   0.00000   0.00000
  40        2PZ         0.00000  -0.26517   0.29368   0.40501   0.11537
  41 13  C  1S          0.00129   0.00000   0.00000   0.00000   0.00000
  42        2S         -0.00397   0.00000   0.00000   0.00000   0.00000
  43        2PX        -0.25152   0.00000   0.00000   0.00000   0.00000
  44        2PY        -0.02105   0.00000   0.00000   0.00000   0.00000
  45        2PZ         0.00000  -0.32614   0.38348  -0.08721   0.29415
  46 14  C  1S         -0.00572   0.00000   0.00000   0.00000   0.00000
  47        2S          0.01244   0.00000   0.00000   0.00000   0.00000
  48        2PX         0.21389   0.00000   0.00000   0.00000   0.00000
  49        2PY         0.01072   0.00000   0.00000   0.00000   0.00000
  50        2PZ         0.00000  -0.26982   0.10449  -0.49394   0.08315
  51 15  C  1S          0.00956   0.00000   0.00000   0.00000   0.00000
  52        2S         -0.02687   0.00000   0.00000   0.00000   0.00000
  53        2PX        -0.28300   0.00000   0.00000   0.00000   0.00000
  54        2PY        -0.05143   0.00000   0.00000   0.00000   0.00000
  55        2PZ         0.00000  -0.12247  -0.26961  -0.40942  -0.23736
  56 16  H  1S         -0.24467   0.00000   0.00000   0.00000   0.00000
  57 17  H  1S          0.19385   0.00000   0.00000   0.00000   0.00000
  58 18  H  1S          0.02162   0.00000   0.00000   0.00000   0.00000
  59 19  H  1S         -0.21021   0.00000   0.00000   0.00000   0.00000
  60 20  H  1S          0.21437   0.00000   0.00000   0.00000   0.00000
                          36        37        38        39        40
                           V         V         V         V         V
     Eigenvalues --     0.18727   0.26138   0.27195   0.41209   0.52857
   1 1   C  1S          0.00000   0.00000   0.00000   0.00000   0.00000
   2        2S          0.00000   0.00000   0.00000   0.00000   0.00000
   3        2PX         0.00000   0.00000   0.00000   0.00000   0.00000
   4        2PY         0.00000   0.00000   0.00000   0.00000   0.00000
   5        2PZ         0.43022  -0.15472   0.52520   0.35436  -0.13936
   6 2   C  1S          0.00000   0.00000   0.00000   0.00000   0.00000
   7        2S          0.00000   0.00000   0.00000   0.00000   0.00000
   8        2PX         0.00000   0.00000   0.00000   0.00000   0.00000
   9        2PY         0.00000   0.00000   0.00000   0.00000   0.00000
  10        2PZ        -0.24479   0.14158  -0.49001  -0.54375   0.28253
  11 3   C  1S          0.00000   0.00000   0.00000   0.00000   0.00000
  12        2S          0.00000   0.00000   0.00000   0.00000   0.00000
  13        2PX         0.00000   0.00000   0.00000   0.00000   0.00000
  14        2PY         0.00000   0.00000   0.00000   0.00000   0.00000
  15        2PZ        -0.38128   0.00844  -0.09559   0.59185  -0.50525
  16 4   C  1S          0.00000   0.00000   0.00000   0.00000   0.00000
  17        2S          0.00000   0.00000   0.00000   0.00000   0.00000
  18        2PX         0.00000   0.00000   0.00000   0.00000   0.00000
  19        2PY         0.00000   0.00000   0.00000   0.00000   0.00000
  20        2PZ         0.63742   0.00575   0.10685  -0.37736   0.24636
  21 5   H  1S          0.00000   0.00000   0.00000   0.00000   0.00000
  22 6   H  1S          0.00000   0.00000   0.00000   0.00000   0.00000
  23 7   H  1S          0.00000   0.00000   0.00000   0.00000   0.00000
  24 8   H  1S          0.00000   0.00000   0.00000   0.00000   0.00000
  25 9   H  1S          0.00000   0.00000   0.00000   0.00000   0.00000
  26 10  C  1S          0.00000   0.00000   0.00000   0.00000   0.00000
  27        2S          0.00000   0.00000   0.00000   0.00000   0.00000
  28        2PX         0.00000   0.00000   0.00000   0.00000   0.00000
  29        2PY         0.00000   0.00000   0.00000   0.00000   0.00000
  30        2PZ        -0.28843  -0.16073   0.47803  -0.09309   0.64667
  31 11  C  1S          0.00000   0.00000   0.00000   0.00000   0.00000
  32        2S          0.00000   0.00000   0.00000   0.00000   0.00000
  33        2PX         0.00000   0.00000   0.00000   0.00000   0.00000
  34        2PY         0.00000   0.00000   0.00000   0.00000   0.00000
  35        2PZ         0.24499   0.61651  -0.03596  -0.16973  -0.47660
  36 12  C  1S          0.00000   0.00000   0.00000   0.00000   0.00000
  37        2S          0.00000   0.00000   0.00000   0.00000   0.00000
  38        2PX         0.00000   0.00000   0.00000   0.00000   0.00000
  39        2PY         0.00000   0.00000   0.00000   0.00000   0.00000
  40        2PZ         0.14029  -0.46744  -0.40928   0.38432   0.38833
  41 13  C  1S          0.00000   0.00000   0.00000   0.00000   0.00000
  42        2S          0.00000   0.00000   0.00000   0.00000   0.00000
  43        2PX         0.00000   0.00000   0.00000   0.00000   0.00000
  44        2PY         0.00000   0.00000   0.00000   0.00000   0.00000
  45        2PZ        -0.34061  -0.15130   0.46044  -0.46848  -0.36007
  46 14  C  1S          0.00000   0.00000   0.00000   0.00000   0.00000
  47        2S          0.00000   0.00000   0.00000   0.00000   0.00000
  48        2PX         0.00000   0.00000   0.00000   0.00000   0.00000
  49        2PY         0.00000   0.00000   0.00000   0.00000   0.00000
  50        2PZ         0.08969   0.62036  -0.07383   0.39494   0.38730
  51 15  C  1S          0.00000   0.00000   0.00000   0.00000   0.00000
  52        2S          0.00000   0.00000   0.00000   0.00000   0.00000
  53        2PX         0.00000   0.00000   0.00000   0.00000   0.00000
  54        2PY         0.00000   0.00000   0.00000   0.00000   0.00000
  55        2PZ         0.28106  -0.46486  -0.38000  -0.18523  -0.47469
  56 16  H  1S          0.00000   0.00000   0.00000   0.00000   0.00000
  57 17  H  1S          0.00000   0.00000   0.00000   0.00000   0.00000
  58 18  H  1S          0.00000   0.00000   0.00000   0.00000   0.00000
  59 19  H  1S          0.00000   0.00000   0.00000   0.00000   0.00000
  60 20  H  1S          0.00000   0.00000   0.00000   0.00000   0.00000
                          41        42        43        44        45
                           V         V         V         V         V
     Eigenvalues --     0.55177   0.56783   0.60264   0.61050   0.65357
   1 1   C  1S         -0.01806   0.06461  -0.10706   0.03183   0.08272
   2        2S          0.12913  -0.41025   0.71285  -0.20238  -0.55478
   3        2PX         0.02972   0.37186   0.04932   0.13023  -0.33011
   4        2PY         0.13426  -0.12555   0.20514  -0.06986  -0.02188
   5        2PZ         0.00000   0.00000   0.00000   0.00000   0.00000
   6 2   C  1S         -0.05546  -0.05800   0.01367  -0.06763  -0.02903
   7        2S          0.36298   0.36926  -0.07193   0.44731   0.18207
   8        2PX         0.17250   0.38576   0.27751  -0.02376  -0.16303
   9        2PY        -0.17836  -0.09863  -0.16870  -0.18613   0.15524
  10        2PZ         0.00000   0.00000   0.00000   0.00000   0.00000
  11 3   C  1S          0.04540  -0.02148   0.00647   0.00561   0.07722
  12        2S         -0.27573   0.13634  -0.02639  -0.03058  -0.53400
  13        2PX         0.03424   0.04130   0.24242  -0.14989  -0.10837
  14        2PY         0.01638  -0.07050  -0.09203  -0.25473   0.34488
  15        2PZ         0.00000   0.00000   0.00000   0.00000   0.00000
  16 4   C  1S         -0.08340   0.07027  -0.09063  -0.01821   0.00049
  17        2S          0.53478  -0.46003   0.60165   0.12142  -0.01188
  18        2PX        -0.15408   0.24777   0.09454  -0.30687   0.09706
  19        2PY        -0.07446  -0.26537   0.20669  -0.39350   0.11555
  20        2PZ         0.00000   0.00000   0.00000   0.00000   0.00000
  21 5   H  1S         -0.04565   0.54663  -0.34588   0.22183   0.03971
  22 6   H  1S         -0.16946  -0.03714  -0.53757   0.04584   0.56531
  23 7   H  1S         -0.34836  -0.54218  -0.24557  -0.35993   0.21295
  24 8   H  1S         -0.21924   0.43418  -0.44437   0.28833  -0.14317
  25 9   H  1S         -0.37990   0.27379  -0.18789  -0.46577   0.17340
  26 10  C  1S          0.01156   0.02829   0.02448   0.06999  -0.02329
  27        2S         -0.05547  -0.18129  -0.16523  -0.46420   0.16611
  28        2PX         0.01761   0.09767   0.23713  -0.21425   0.01775
  29        2PY         0.09449  -0.10982   0.02060  -0.05857   0.53120
  30        2PZ         0.00000   0.00000   0.00000   0.00000   0.00000
  31 11  C  1S         -0.06695  -0.04939   0.01043  -0.04109  -0.03732
  32        2S          0.44041   0.32372  -0.07666   0.26152   0.25824
  33        2PX         0.24682   0.32384   0.20032  -0.27184   0.18698
  34        2PY         0.17132   0.07636   0.10036   0.10407   0.40690
  35        2PZ         0.00000   0.00000   0.00000   0.00000   0.00000
  36 12  C  1S         -0.02748   0.01081   0.01232   0.06455  -0.01654
  37        2S          0.19732  -0.06326  -0.08539  -0.42612   0.11507
  38        2PX         0.20168   0.18125   0.02091  -0.38361   0.12245
  39        2PY        -0.17469  -0.10866   0.17131   0.14134   0.19949
  40        2PZ         0.00000   0.00000   0.00000   0.00000   0.00000
  41 13  C  1S         -0.04357  -0.00198   0.01971   0.01574   0.02716
  42        2S          0.28951   0.01035  -0.14287  -0.12150  -0.17918
  43        2PX        -0.00342   0.18585   0.09028  -0.12708   0.08794
  44        2PY        -0.25727  -0.01530   0.30394   0.30888   0.35066
  45        2PZ         0.00000   0.00000   0.00000   0.00000   0.00000
  46 14  C  1S         -0.02253   0.00150   0.05857   0.02700  -0.01612
  47        2S          0.16601  -0.01098  -0.39067  -0.17503   0.10861
  48        2PX        -0.19809   0.20073   0.32878  -0.04244   0.12777
  49        2PY        -0.19132   0.04071   0.13890   0.11351   0.29794
  50        2PZ         0.00000   0.00000   0.00000   0.00000   0.00000
  51 15  C  1S         -0.07580   0.02216  -0.02255  -0.03489  -0.00375
  52        2S          0.49784  -0.15063   0.14179   0.22220   0.02655
  53        2PX        -0.23812   0.32749   0.25862  -0.24562   0.00252
  54        2PY         0.17724  -0.05698   0.04630   0.18685   0.35352
  55        2PZ         0.00000   0.00000   0.00000   0.00000   0.00000
  56 16  H  1S         -0.49936  -0.39084  -0.14666   0.11354  -0.53358
  57 17  H  1S         -0.37933  -0.18904   0.10625   0.63868  -0.05786
  58 18  H  1S         -0.43887  -0.02544   0.37609   0.36178   0.43740
  59 19  H  1S         -0.36589   0.21662   0.57206   0.11178   0.19817
  60 20  H  1S         -0.51412   0.33578   0.17927  -0.35157  -0.22250
                          46        47        48        49        50
                           V         V         V         V         V
     Eigenvalues --     0.68728   0.70329   0.71178   0.75045   0.77380
   1 1   C  1S         -0.05417   0.01719   0.02644   0.07954  -0.04329
   2        2S          0.38064  -0.11288  -0.19193  -0.54409   0.31666
   3        2PX         0.09216  -0.39520   0.40541  -0.01208   0.17715
   4        2PY         0.40166   0.08248   0.00885  -0.07068   0.33885
   5        2PZ         0.00000   0.00000   0.00000   0.00000   0.00000
   6 2   C  1S         -0.04138  -0.04556   0.04757  -0.07669  -0.05954
   7        2S          0.30761   0.32008  -0.34343   0.51157   0.43928
   8        2PX         0.09127  -0.16080   0.30069   0.21015  -0.23131
   9        2PY        -0.07395  -0.04658   0.29442  -0.02962  -0.14647
  10        2PZ         0.00000   0.00000   0.00000   0.00000   0.00000
  11 3   C  1S          0.00485   0.02097  -0.03758   0.07856   0.06442
  12        2S         -0.03701  -0.13489   0.26083  -0.51029  -0.46590
  13        2PX        -0.19800  -0.25471   0.28750   0.18196  -0.30539
  14        2PY         0.17201  -0.15840   0.43119  -0.04295   0.14088
  15        2PZ         0.00000   0.00000   0.00000   0.00000   0.00000
  16 4   C  1S          0.05127  -0.01222   0.02544  -0.10470   0.04996
  17        2S         -0.35771   0.07866  -0.17335   0.72470  -0.37179
  18        2PX         0.12231  -0.12224   0.12971   0.14146   0.02135
  19        2PY         0.31561   0.06527   0.24206   0.10785  -0.33258
  20        2PZ         0.00000   0.00000   0.00000   0.00000   0.00000
  21 5   H  1S         -0.30247  -0.28065   0.44402   0.38369  -0.26338
  22 6   H  1S         -0.44117   0.33432  -0.24434   0.29450  -0.40175
  23 7   H  1S         -0.19356   0.01884   0.05855  -0.48790  -0.12115
  24 8   H  1S         -0.03376  -0.04521  -0.22660  -0.51383   0.51931
  25 9   H  1S          0.37455  -0.16018   0.40935  -0.23619   0.06359
  26 10  C  1S         -0.02095  -0.02821  -0.03127  -0.11901  -0.09162
  27        2S          0.14400   0.20301   0.24529   0.82165   0.64599
  28        2PX        -0.43184  -0.13769   0.08787   0.04224  -0.07034
  29        2PY         0.11453  -0.13088   0.15470  -0.19419  -0.06549
  30        2PZ         0.00000   0.00000   0.00000   0.00000   0.00000
  31 11  C  1S         -0.08033  -0.05690   0.01964   0.09341   0.08903
  32        2S          0.55923   0.38280  -0.15587  -0.64973  -0.61991
  33        2PX        -0.02816   0.16337   0.09642   0.19313   0.03099
  34        2PY        -0.01909  -0.27113   0.00343  -0.21090   0.27249
  35        2PZ         0.00000   0.00000   0.00000   0.00000   0.00000
  36 12  C  1S          0.07002   0.12748   0.05872  -0.00441  -0.07323
  37        2S         -0.48203  -0.86567  -0.39667   0.00934   0.52657
  38        2PX        -0.20314   0.19794  -0.11991  -0.03046   0.33451
  39        2PY        -0.07413   0.01404   0.35556   0.13013   0.26130
  40        2PZ         0.00000   0.00000   0.00000   0.00000   0.00000
  41 13  C  1S          0.01999  -0.14015  -0.10820   0.00626  -0.05313
  42        2S         -0.13140   0.95221   0.74285  -0.03013   0.39983
  43        2PX         0.15763   0.17658  -0.15750   0.00382  -0.31348
  44        2PY         0.06719  -0.10468   0.07416   0.18339   0.25669
  45        2PZ         0.00000   0.00000   0.00000   0.00000   0.00000
  46 14  C  1S         -0.11142   0.07435   0.07830  -0.03565   0.05930
  47        2S          0.75863  -0.50340  -0.52723   0.23405  -0.43547
  48        2PX        -0.24019   0.08725  -0.31285  -0.25719  -0.20347
  49        2PY         0.14433   0.25803   0.10557  -0.00736   0.32421
  50        2PZ         0.00000   0.00000   0.00000   0.00000   0.00000
  51 15  C  1S          0.10268   0.04475  -0.05905   0.08244   0.03845
  52        2S         -0.70483  -0.32912   0.40046  -0.56348  -0.27943
  53        2PX        -0.05144  -0.04519  -0.19655  -0.10698  -0.29658
  54        2PY         0.15896  -0.25208   0.02448  -0.14304  -0.10271
  55        2PZ         0.00000   0.00000   0.00000   0.00000   0.00000
  56 16  H  1S         -0.20250  -0.21417  -0.00914   0.35410   0.16908
  57 17  H  1S          0.36584   0.28083   0.45259   0.05614  -0.36360
  58 18  H  1S          0.13237  -0.56947  -0.29320   0.17996   0.05289
  59 19  H  1S         -0.50256   0.43477   0.07260  -0.31586   0.17557
  60 20  H  1S          0.16680   0.26397  -0.44604   0.30683  -0.08824
                          51        52        53        54        55
                           V         V         V         V         V
     Eigenvalues --     0.78980   0.80846   0.87174   0.88992   0.89817
   1 1   C  1S         -0.06339   0.03938  -0.02703   0.02728   0.02759
   2        2S          0.46475  -0.26807   0.19117  -0.20367  -0.21664
   3        2PX        -0.30009  -0.29688  -0.32378  -0.08888   0.06457
   4        2PY        -0.43667   0.28973  -0.16192   0.60688   0.35046
   5        2PZ         0.00000   0.00000   0.00000   0.00000   0.00000
   6 2   C  1S          0.02792  -0.09101   0.05495  -0.06964  -0.01433
   7        2S         -0.20592   0.67029  -0.39757   0.52290   0.11599
   8        2PX        -0.07085   0.20157   0.19177  -0.06178  -0.11099
   9        2PY        -0.55353   0.04570  -0.05102   0.41581   0.41767
  10        2PZ         0.00000   0.00000   0.00000   0.00000   0.00000
  11 3   C  1S          0.08908   0.00016  -0.08232   0.05098  -0.01847
  12        2S         -0.67335   0.00393   0.62452  -0.38553   0.14588
  13        2PX         0.26361  -0.28645  -0.02113  -0.01259  -0.05451
  14        2PY        -0.29603  -0.10478  -0.00823   0.07561   0.06892
  15        2PZ         0.00000   0.00000   0.00000   0.00000   0.00000
  16 4   C  1S         -0.01263   0.02948   0.04192   0.01909  -0.01525
  17        2S          0.09293  -0.21891  -0.30122  -0.15105   0.11144
  18        2PX         0.73603   0.17236  -0.19814   0.16054  -0.39553
  19        2PY        -0.30958   0.41881  -0.02190  -0.31158  -0.18401
  20        2PZ         0.00000   0.00000   0.00000   0.00000   0.00000
  21 5   H  1S         -0.31935  -0.17748  -0.26268  -0.28800  -0.01254
  22 6   H  1S          0.20271   0.21567   0.19698  -0.08906  -0.09325
  23 7   H  1S         -0.09739  -0.44068   0.12890  -0.02230   0.21610
  24 8   H  1S          0.26629  -0.21199   0.18413   0.36870   0.10969
  25 9   H  1S          0.36581   0.40384   0.01115   0.10706  -0.49876
  26 10  C  1S          0.02122   0.03229  -0.03106  -0.04687   0.03325
  27        2S         -0.17184  -0.23326   0.26944   0.36706  -0.27153
  28        2PX         0.18799  -0.16852   0.06608   0.57761   0.19007
  29        2PY         0.13438   0.14289  -0.56170   0.16113   0.12084
  30        2PZ         0.00000   0.00000   0.00000   0.00000   0.00000
  31 11  C  1S          0.02386  -0.00851  -0.00933   0.03691   0.03343
  32        2S         -0.18244   0.07643   0.06377  -0.29194  -0.27187
  33        2PX         0.03923  -0.12902   0.67404   0.23575   0.17049
  34        2PY         0.13539   0.23228   0.03706  -0.50752   0.57071
  35        2PZ         0.00000   0.00000   0.00000   0.00000   0.00000
  36 12  C  1S          0.01082  -0.07295   0.01594   0.05506  -0.03284
  37        2S         -0.06993   0.54630  -0.12188  -0.44557   0.26326
  38        2PX        -0.21160  -0.47140  -0.03592  -0.12286  -0.25619
  39        2PY         0.34306  -0.14847  -0.05720  -0.00107   0.61609
  40        2PZ         0.00000   0.00000   0.00000   0.00000   0.00000
  41 13  C  1S         -0.03561   0.03855   0.00743   0.03987  -0.02090
  42        2S          0.26064  -0.29640  -0.05914  -0.32010   0.17131
  43        2PX        -0.03442  -0.58089  -0.10606   0.49240  -0.00242
  44        2PY        -0.11714  -0.22838   0.59186  -0.04983  -0.21905
  45        2PZ         0.00000   0.00000   0.00000   0.00000   0.00000
  46 14  C  1S         -0.00788   0.08796   0.03923  -0.01786  -0.01691
  47        2S          0.06905  -0.65587  -0.31056   0.14905   0.12668
  48        2PX        -0.31810  -0.00006  -0.41517   0.32746  -0.32666
  49        2PY        -0.03800  -0.27910  -0.42780  -0.53619  -0.10323
  50        2PZ         0.00000   0.00000   0.00000   0.00000   0.00000
  51 15  C  1S         -0.02891  -0.05763  -0.01996  -0.07776   0.01285
  52        2S          0.21560   0.40425   0.15280   0.61877  -0.08697
  53        2PX         0.26979   0.07593  -0.19573  -0.07094   0.67857
  54        2PY         0.10709  -0.51744  -0.39602  -0.05959  -0.10425
  55        2PZ         0.00000   0.00000   0.00000   0.00000   0.00000
  56 16  H  1S         -0.02056   0.06920  -0.51864   0.16341  -0.25399
  57 17  H  1S          0.32914   0.04569   0.04944   0.23699   0.30271
  58 18  H  1S         -0.20679  -0.07021   0.47449   0.07701  -0.22332
  59 19  H  1S         -0.26253   0.15604  -0.32503  -0.03739  -0.30251
  60 20  H  1S         -0.04154   0.01028  -0.03751  -0.29354   0.61859
                          56        57        58        59        60
                           V         V         V         V         V
     Eigenvalues --     0.92236   1.00553   1.04131   1.11803   1.16146
   1 1   C  1S          0.01755   0.02798  -0.03618  -0.00815  -0.01602
   2        2S         -0.12942  -0.23394   0.28726   0.07791   0.13594
   3        2PX        -0.45880  -0.23877  -0.35309   0.21030  -0.13573
   4        2PY         0.15930   0.43018  -0.25947  -0.16455  -0.11598
   5        2PZ         0.00000   0.00000   0.00000   0.00000   0.00000
   6 2   C  1S         -0.02943   0.00445   0.04367  -0.02766   0.01326
   7        2S          0.24084  -0.04423  -0.35323   0.23990  -0.12375
   8        2PX         0.49813   0.23990   0.61723  -0.36735   0.34182
   9        2PY         0.11708   0.63570  -0.29989  -0.36884  -0.18034
  10        2PZ         0.00000   0.00000   0.00000   0.00000   0.00000
  11 3   C  1S         -0.10222  -0.00858  -0.03083   0.00765   0.02162
  12        2S          0.79654   0.07491   0.25952  -0.07145  -0.19940
  13        2PX        -0.15727   0.69515   0.04539  -0.78223   0.07709
  14        2PY        -0.17175  -0.16608   0.79185  -0.00050   0.66586
  15        2PZ         0.00000   0.00000   0.00000   0.00000   0.00000
  16 4   C  1S          0.05045  -0.03224   0.03497   0.02927   0.00351
  17        2S         -0.36435   0.27063  -0.27818  -0.25564  -0.03975
  18        2PX        -0.12775   0.26370  -0.43719  -0.26008  -0.24311
  19        2PY         0.26783  -0.40373  -0.21477   0.33550  -0.19619
  20        2PZ         0.00000   0.00000   0.00000   0.00000   0.00000
  21 5   H  1S         -0.29845  -0.26391  -0.25724   0.18325  -0.10022
  22 6   H  1S          0.29012   0.07195   0.19555  -0.08570   0.06816
  23 7   H  1S         -0.45258   0.10585  -0.34379   0.02339  -0.25756
  24 8   H  1S         -0.00195   0.24146   0.27738  -0.16654   0.14763
  25 9   H  1S          0.18751  -0.09619  -0.23758   0.02438  -0.23414
  26 10  C  1S          0.07632   0.02155  -0.08021   0.00519   0.01122
  27        2S         -0.59693  -0.17504   0.66154  -0.04272  -0.08444
  28        2PX         0.29626   0.03059   0.09737   0.90728  -0.06738
  29        2PY        -0.33282  -0.08631   0.14376   0.07568   0.86875
  30        2PZ         0.00000   0.00000   0.00000   0.00000   0.00000
  31 11  C  1S          0.05778  -0.03961   0.03903   0.01540  -0.04065
  32        2S         -0.46542   0.31898  -0.29545  -0.13749   0.34817
  33        2PX        -0.29952   0.05577   0.24953   0.34829  -0.56423
  34        2PY         0.12991  -0.31395  -0.05969  -0.54450  -0.31386
  35        2PZ         0.00000   0.00000   0.00000   0.00000   0.00000
  36 12  C  1S         -0.00067  -0.00651  -0.03280   0.00873   0.04508
  37        2S         -0.00215   0.06309   0.25658  -0.07752  -0.37870
  38        2PX         0.46856  -0.15768  -0.49871  -0.22068   0.44552
  39        2PY         0.37208  -0.57760   0.02427  -0.41118  -0.26599
  40        2PZ         0.00000   0.00000   0.00000   0.00000   0.00000
  41 13  C  1S         -0.04568  -0.00955   0.04328  -0.00607  -0.04129
  42        2S          0.37310   0.07860  -0.35137   0.04957   0.34142
  43        2PX         0.30285  -0.67375  -0.14285  -0.45399   0.02400
  44        2PY         0.13350   0.08906  -0.52185   0.07563   0.48889
  45        2PZ         0.00000   0.00000   0.00000   0.00000   0.00000
  46 14  C  1S         -0.03865   0.01164  -0.03225   0.00438   0.04530
  47        2S          0.32105  -0.10021   0.25167  -0.03005  -0.38152
  48        2PX        -0.15039  -0.33836   0.37881  -0.34615  -0.41080
  49        2PY         0.19166   0.58302   0.28635   0.33200  -0.30211
  50        2PZ         0.00000   0.00000   0.00000   0.00000   0.00000
  51 15  C  1S         -0.01935   0.03140   0.04207  -0.02887  -0.03674
  52        2S          0.13963  -0.26329  -0.32247   0.24779   0.31326
  53        2PX         0.08531   0.14122  -0.16884   0.46431   0.50395
  54        2PY         0.54183   0.36798   0.18097   0.46611  -0.37297
  55        2PZ         0.00000   0.00000   0.00000   0.00000   0.00000
  56 16  H  1S          0.41290  -0.03643   0.04254   0.00899   0.33407
  57 17  H  1S         -0.16731  -0.12162   0.20563   0.01430  -0.20167
  58 18  H  1S         -0.03182   0.03455  -0.22983   0.03175   0.19300
  59 19  H  1S         -0.13381   0.03010   0.22575  -0.07300  -0.19362
  60 20  H  1S         -0.22467   0.04991  -0.00001   0.03437   0.32632
     Density Matrix:
                           1         2         3         4         5
   1 1   C  1S          2.07386
   2        2S         -0.23114   0.82507
   3        2PX         0.00185  -0.00763   0.61257
   4        2PY        -0.00236   0.02329   0.00038   0.60120
   5        2PZ         0.00000   0.00000   0.00000   0.00000   0.83598
   6 2   C  1S          0.02222  -0.05887   0.00156   0.10304   0.00000
   7        2S         -0.05919   0.11054  -0.00856  -0.29027   0.00000
[...]
  41 13  C  1S          0.00000  -0.00229  -0.00047  -0.00672   0.00000
  42        2S         -0.00229   0.03773   0.00794   0.10641   0.00000
  43        2PX        -0.00046   0.00700  -0.00572   0.01714   0.00000
  44        2PY        -0.00673   0.10741   0.01461   0.13001   0.00000
  45        2PZ         0.00000   0.00000   0.00000   0.00000   0.11082
  46 14  C  1S          0.00000   0.00005   0.00005   0.00005   0.00000
  47        2S          0.00005  -0.00351  -0.00440  -0.00372   0.00000
  48        2PX         0.00006  -0.00380  -0.00249  -0.00431   0.00000
  49        2PY         0.00005  -0.00430  -0.00152  -0.00238   0.00000
  50        2PZ         0.00000   0.00000   0.00000   0.00000  -0.00169
  51 15  C  1S          0.00000   0.00002   0.00002   0.00000   0.00000
  52        2S          0.00001  -0.00186  -0.00200  -0.00017   0.00000
  53        2PX         0.00002  -0.00222  -0.00191  -0.00042   0.00000
  54        2PY         0.00000  -0.00013  -0.00040  -0.00033   0.00000
  55        2PZ         0.00000   0.00000   0.00000   0.00000  -0.00394
  56 16  H  1S          0.00017  -0.01145  -0.00128  -0.01500   0.00000
  57 17  H  1S         -0.00666   0.14129   0.24299   0.01862   0.00000
  58 18  H  1S          0.00015  -0.01004  -0.00081  -0.01453   0.00000
  59 19  H  1S         -0.00001   0.00065   0.00021   0.00091   0.00000
  60 20  H  1S          0.00000   0.00005   0.00004   0.00000   0.00000
                          41        42        43        44        45
  41 13  C  1S          2.07469
  42        2S         -0.05403   0.77782
  43        2PX         0.00000   0.00000   0.61515
  44        2PY         0.00000   0.00000   0.00000   0.61541
  45        2PZ         0.00000   0.00000   0.00000   0.00000   0.78652
  46 14  C  1S          0.00000  -0.00226  -0.00670  -0.00043   0.00000
  47        2S         -0.00226   0.03750   0.10761   0.00655   0.00000
  48        2PX        -0.00669   0.10673   0.13182   0.01610   0.00000
  49        2PY        -0.00044   0.00738   0.01361  -0.00548   0.00000
  50        2PZ         0.00000   0.00000   0.00000   0.00000   0.10803
  51 15  C  1S          0.00000   0.00004   0.00009   0.00001   0.00000
  52        2S          0.00004  -0.00290  -0.00684  -0.00063   0.00000
  53        2PX         0.00010  -0.00750  -0.00954  -0.00007   0.00000
  54        2PY         0.00001  -0.00045  -0.00132   0.00036   0.00000
  55        2PZ         0.00000   0.00000   0.00000   0.00000  -0.00169
  56 16  H  1S         -0.00001   0.00065  -0.00003   0.00117   0.00000
  57 17  H  1S          0.00015  -0.01017  -0.00732  -0.00836   0.00000
  58 18  H  1S         -0.00670   0.14197   0.12911   0.13156   0.00000
  59 19  H  1S          0.00015  -0.01013  -0.00849  -0.00715   0.00000
  60 20  H  1S         -0.00001   0.00066   0.00117  -0.00003   0.00000
                          46        47        48        49        50
  46 14  C  1S          2.07472
  47        2S         -0.05404   0.77784
  48        2PX         0.00000   0.00000   0.60781
  49        2PY         0.00000   0.00000   0.00000   0.62122
  50        2PZ         0.00000   0.00000   0.00000   0.00000   0.78670
  51 15  C  1S          0.00000  -0.00233  -0.00349  -0.00375   0.00000
  52        2S         -0.00232   0.03876   0.05413   0.06100   0.00000
  53        2PX        -0.00367   0.06028   0.01241   0.06486   0.00000
  54        2PY        -0.00353   0.05432   0.06404   0.01390   0.00000
  55        2PZ         0.00000   0.00000   0.00000   0.00000   0.11325
  56 16  H  1S          0.00000   0.00005   0.00000   0.00004   0.00000
  57 17  H  1S         -0.00001   0.00066   0.00092   0.00021   0.00000
  58 18  H  1S          0.00015  -0.01002  -0.01446  -0.00087   0.00000
  59 19  H  1S         -0.00667   0.14133   0.01977   0.24174   0.00000
  60 20  H  1S          0.00017  -0.01130  -0.01483  -0.00137   0.00000
                          51        52        53        54        55
  51 15  C  1S          2.07478
  52        2S         -0.05434   0.78387
  53        2PX         0.00000   0.00000   0.62636
  54        2PY         0.00000   0.00000   0.00000   0.60403
  55        2PZ         0.00000   0.00000   0.00000   0.00000   0.79492
  56 16  H  1S         -0.00001   0.00063   0.00021   0.00090   0.00000
  57 17  H  1S          0.00000   0.00003   0.00003   0.00000   0.00000
  58 18  H  1S          0.00000   0.00061   0.00078   0.00032   0.00000
  59 19  H  1S          0.00016  -0.01074  -0.00120  -0.01416   0.00000
  60 20  H  1S         -0.00669   0.13948   0.24349   0.02049   0.00000
                          56        57        58        59        60
  56 16  H  1S          0.60227
  57 17  H  1S         -0.00472   0.59798
  58 18  H  1S         -0.00007  -0.00405   0.59541
  59 19  H  1S          0.00001  -0.00007  -0.00401   0.59768
  60 20  H  1S         -0.00008   0.00001  -0.00007  -0.00468   0.60170
     Gross orbital populations:
                           1
   1 1   C  1S          1.99581
   2        2S          1.13728
   3        2PX         0.99737
   4        2PY         0.99301
   5        2PZ         1.01064
   6 2   C  1S          1.99581
   7        2S          1.13025
   8        2PX         0.99290
   9        2PY         0.94853
  10        2PZ         0.99234
  11 3   C  1S          1.99579
  12        2S          1.12647
  13        2PX         0.95698
  14        2PY         0.92370
  15        2PZ         0.98714
  16 4   C  1S          1.99582
  17        2S          1.13832
  18        2PX         0.98562
  19        2PY         1.00465
  20        2PZ         1.01005
  21 5   H  1S          0.93735
  22 6   H  1S          0.93538
  23 7   H  1S          0.93701
  24 8   H  1S          0.93516
  25 9   H  1S          0.93584
  26 10  C  1S          1.99573
  27        2S          1.12174
  28        2PX         0.94255
  29        2PY         0.94394
  30        2PZ         0.99058
  31 11  C  1S          1.99573
  32        2S          1.12207
  33        2PX         0.95775
  34        2PY         0.98530
  35        2PZ         1.00605
  36 12  C  1S          1.99572
  37        2S          1.12042
  38        2PX         0.98436
  39        2PY         0.96167
  40        2PZ         1.00104
  41 13  C  1S          1.99572
  42        2S          1.12094
  43        2PX         0.97376
  44        2PY         0.97446
  45        2PZ         0.99859
  46 14  C  1S          1.99572
  47        2S          1.12038
  48        2PX         0.96176
  49        2PY         0.98470
  50        2PZ         1.00097
  51 15  C  1S          1.99573
  52        2S          1.12233
  53        2PX         0.98602
  54        2PY         0.95719
  55        2PZ         1.00259
  56 16  H  1S          0.93751
  57 17  H  1S          0.93719
  58 18  H  1S          0.93621
  59 19  H  1S          0.93700
  60 20  H  1S          0.93736
          Condensed to atoms (all electrons):
               1          2          3          4          5          6
     1  C    4.796777   0.608730  -0.023161  -0.006437   0.394018   0.395777
     2  C    0.608730   4.768490   0.400815  -0.030033  -0.024439  -0.025626
     3  C   -0.023161   0.400815   4.743086   0.600324  -0.003820   0.001668
     4  C   -0.006437  -0.030033   0.600324   4.815075  -0.001413   0.000056
     5  H    0.394018  -0.024439  -0.003820  -0.001413   0.595654  -0.024562
     6  H    0.395777  -0.025626   0.001668   0.000056  -0.024562   0.594617
     7  H   -0.030849   0.395797  -0.024715   0.001449   0.002583  -0.006510
     8  H   -0.001715  -0.005469  -0.024530   0.395613  -0.000653  -0.000024
     9  H    0.000065   0.001790  -0.023649   0.395815  -0.000033   0.000002
    10  C    0.000827  -0.022889   0.397851  -0.027845   0.000021  -0.000034
    11  C    0.000077  -0.005285  -0.024216   0.000811  -0.000004   0.000003
    12  C    0.000000   0.000063   0.001030  -0.000020   0.000000   0.000000
    13  C    0.000000  -0.000003   0.000027  -0.000001   0.000000   0.000000
    14  C    0.000000  -0.000016   0.001035   0.000066   0.000000   0.000000
    15  C   -0.000014   0.000762  -0.024597  -0.006595  -0.000002   0.000001
    16  H    0.000010  -0.002881  -0.003343   0.000033  -0.000004   0.000016
    17  H    0.000000   0.000002  -0.000037   0.000001   0.000000   0.000000
    18  H    0.000000   0.000000   0.000003   0.000000   0.000000   0.000000
    19  H    0.000000   0.000001  -0.000037   0.000001   0.000000   0.000000
    20  H   -0.000002   0.000029  -0.003664  -0.002445   0.000000   0.000000
               7          8          9         10         11         12
     1  C   -0.030849  -0.001715   0.000065   0.000827   0.000077   0.000000
     2  C    0.395797  -0.005469   0.001790  -0.022889  -0.005285   0.000063
     3  C   -0.024715  -0.024530  -0.023649   0.397851  -0.024216   0.001030
     4  C    0.001449   0.395613   0.395815  -0.027845   0.000811  -0.000020
     5  H    0.002583  -0.000653  -0.000033   0.000021  -0.000004   0.000000
     6  H   -0.006510  -0.000024   0.000002  -0.000034   0.000003   0.000000
     7  H    0.607424   0.000102  -0.000074  -0.003131  -0.003098   0.000016
     8  H    0.000102   0.594984  -0.024884   0.001705  -0.000041   0.000001
     9  H   -0.000074  -0.024884   0.595092  -0.004434   0.000051  -0.000004
    10  C   -0.003131   0.001705  -0.004434   4.749874   0.509126  -0.027436
    11  C   -0.003098  -0.000041   0.000051   0.509126   4.777032   0.514315
    12  C    0.000016   0.000001  -0.000004  -0.027436   0.514315   4.760704
    13  C   -0.000002   0.000000  -0.000002  -0.011277  -0.030175   0.514380
    14  C   -0.000003   0.000000   0.000000  -0.027312  -0.013114  -0.031817
    15  C    0.000025   0.000086  -0.002443   0.505965  -0.033187  -0.013305
    16  H   -0.002022  -0.000005   0.000004  -0.024804   0.397051  -0.027567
    17  H    0.000011   0.000000   0.000000   0.001635  -0.025953   0.396236
    18  H    0.000000   0.000000   0.000000   0.000051   0.001718  -0.025234
    19  H    0.000000   0.000000   0.000011   0.001641   0.000064   0.001772
    20  H    0.000002  -0.000007  -0.001473  -0.024991   0.001725   0.000088
              13         14         15         16         17         18
     1  C    0.000000   0.000000  -0.000014   0.000010   0.000000   0.000000
     2  C   -0.000003  -0.000016   0.000762  -0.002881   0.000002   0.000000
     3  C    0.000027   0.001035  -0.024597  -0.003343  -0.000037   0.000003
     4  C   -0.000001   0.000066  -0.006595   0.000033   0.000001   0.000000
     5  H    0.000000   0.000000  -0.000002  -0.000004   0.000000   0.000000
     6  H    0.000000   0.000000   0.000001   0.000016   0.000000   0.000000
     7  H   -0.000002  -0.000003   0.000025  -0.002022   0.000011   0.000000
     8  H    0.000000   0.000000   0.000086  -0.000005   0.000000   0.000000
     9  H   -0.000002   0.000000  -0.002443   0.000004   0.000000   0.000000
    10  C   -0.011277  -0.027312   0.505965  -0.024804   0.001635   0.000051
    11  C   -0.030175  -0.013114  -0.033187   0.397051  -0.025953   0.001718
    12  C    0.514380  -0.031817  -0.013305  -0.027567   0.396236  -0.025234
    13  C    4.761542   0.511084  -0.030310   0.001792  -0.025702   0.395943
    14  C    0.511084   4.760222   0.517861   0.000086   0.001782  -0.025190
    15  C   -0.030310   0.517861   4.775282   0.001734   0.000066   0.001715
    16  H    0.001792   0.000086   0.001734   0.602272  -0.004716  -0.000072
    17  H   -0.025702   0.001782   0.000066  -0.004716   0.597983  -0.004052
    18  H    0.395943  -0.025190   0.001715  -0.000072  -0.004052   0.595413
    19  H   -0.025621   0.396179  -0.025939   0.000006  -0.000075  -0.004012
    20  H    0.001795  -0.027337   0.396763  -0.000078   0.000006  -0.000072
              19         20
     1  C    0.000000  -0.000002
     2  C    0.000001   0.000029
     3  C   -0.000037  -0.003664
     4  C    0.000001  -0.002445
     5  H    0.000000   0.000000
     6  H    0.000000   0.000000
     7  H    0.000000   0.000002
     8  H    0.000000  -0.000007
     9  H    0.000011  -0.001473
    10  C    0.001641  -0.024991
    11  C    0.000064   0.001725
    12  C    0.001772   0.000088
    13  C   -0.025621   0.001795
    14  C    0.396179  -0.027337
    15  C   -0.025939   0.396763
    16  H    0.000006  -0.000078
    17  H   -0.000075   0.000006
    18  H   -0.004012  -0.000072
    19  H    0.597683  -0.004677
    20  H   -0.004677   0.601701
 Mulliken charges:
               1
     1  C   -0.134103
     2  C   -0.059837
     3  C    0.009929
     4  C   -0.134457
     5  H    0.062653
     6  H    0.064616
     7  H    0.062995
     8  H    0.064839
     9  H    0.064162
    10  C    0.005458
    11  C   -0.066900
    12  C   -0.063223
    13  C   -0.063470
    14  C   -0.063527
    15  C   -0.063867
    16  H    0.062490
    17  H    0.062813
    18  H    0.063790
    19  H    0.063002
    20  H    0.062637
 Sum of Mulliken charges =   0.00000
 Mulliken charges with hydrogens summed into heavy atoms:
               1
     1  C   -0.006834
     2  C    0.003157
     3  C    0.009929
     4  C   -0.005456
    10  C    0.005458
    11  C   -0.004411
    12  C   -0.000409
    13  C    0.000320
    14  C   -0.000524
    15  C   -0.001230
 Electronic spatial extent (au):  <R**2>=           1668.2259
 Charge=              0.0000 electrons
 Dipole moment (field-independent basis, Debye):
    X=              0.0422    Y=             -0.0337    Z=              0.0000  Tot=              0.0540
 Quadrupole moment (field-independent basis, Debye-Ang):
   XX=            -51.8181   YY=            -51.9939   ZZ=            -58.2100
   XY=              0.2535   XZ=              0.0000   YZ=              0.0000
 Traceless Quadrupole moment (field-independent basis, Debye-Ang):
   XX=              2.1893   YY=              2.0134   ZZ=             -4.2027
   XY=              0.2535   XZ=              0.0000   YZ=              0.0000
 Octapole moment (field-independent basis, Debye-Ang**2):
  XXX=              0.3725  YYY=             -1.6193  ZZZ=              0.0000  XYY=              0.6872
  XXY=             -0.0642  XXZ=              0.0000  XZZ=              0.1355  YZZ=             -0.1737
  YYZ=              0.0000  XYZ=              0.0000
 Hexadecapole moment (field-independent basis, Debye-Ang**3):
 XXXX=           -820.5890 YYYY=          -1187.4843 ZZZZ=            -47.2426 XXXY=            259.9899
 XXXZ=              0.0000 YYYX=            267.8549 YYYZ=              0.0000 ZZZX=              0.0000
 ZZZY=              0.0000 XXYY=           -333.3954 XXZZ=           -161.5548 YYZZ=           -230.2716
 XXYZ=              0.0000 YYXZ=              0.0000 ZZXY=             98.5386
 N-N= 4.573964361066D+02 E-N=-1.810358283061D+03  KE= 3.833564413371D+02
 Symmetry A'   KE= 3.708236910654D+02
 Symmetry A"   KE= 1.253275027175D+01
 Orbital energies and kinetic energies (alpha):
                                 1                 2
   1         O               -11.194630         15.897732
   2         O               -11.192138         15.895905
   3         O               -11.181457         15.895951
   4         O               -11.180709         15.908184
   5         O               -11.180109         15.896087
   6         O               -11.179720         15.883177
   7         O               -11.178017         15.889835
   8         O               -11.177789         15.890297
   9         O               -11.169081         15.894004
  10         O               -11.166715         15.894347
  11         O                -1.105343          1.439200
  12         O                -1.046589          1.493379
  13         O                -0.974553          1.562896
  14         O                -0.962429          1.581001
  15         O                -0.930138          1.618085
  16         O                -0.808896          1.342923
  17         O                -0.774696          1.404632
  18         O                -0.750808          1.408163
  19         O                -0.681079          1.216518
  20         O                -0.667545          0.940773
  21         O                -0.612380          1.078652
  22         O                -0.584603          1.257861
  23         O                -0.574699          1.227884
  24         O                -0.547349          1.131630
  25         O                -0.540369          1.257496
  26         O                -0.523861          1.218223
  27         O                -0.481574          1.258496
  28         O                -0.474928          1.062765
  29         O                -0.464442          1.235681
  30         O                -0.430588          1.407285
  31         O                -0.413650          1.385548
  32         O                -0.403238          1.165080
  33         O                -0.307689          1.311598
  34         O                -0.287014          1.327454
  35         O                -0.248168          1.399478
  36         V                 0.213658          1.720819
  37         V                 0.265167          1.829966
  38         V                 0.285891          1.832940
  39         V                 0.414475          2.039564
  40         V                 0.520402          2.225130
  41         V                 0.561681          2.585942
  42         V                 0.578888          2.203516
  43         V                 0.590406          2.427937
  44         V                 0.638155          2.516480
  45         V                 0.649425          2.506916
  46         V                 0.675436          2.457881
  47         V                 0.712299          2.986093
  48         V                 0.733165          3.415870
  49         V                 0.749924          3.382429
  50         V                 0.773584          2.973401
  51         V                 0.828115          2.980758
  52         V                 0.851402          2.931637
  53         V                 0.873156          3.041413
  54         V                 0.906971          3.102747
  55         V                 0.913866          2.894877
  56         V                 0.963629          3.545813
  57         V                 1.008779          3.113910
  58         V                 1.065019          3.495550
  59         V                 1.127361          3.602338
  60         V                 1.158731          3.683630
 Total kinetic energy from orbitals= 3.833564413371D+02
 1\1\GINC-HPC\FOpt\RHF\STO-6G\C10H10\NAKANO\04-Oct-2021\0\\# hf/sto-6g 
 pop=full opt\\CH2CHC-Ph-CH2 molecule : Opt.\\0,1\C,-0.1098762909,0.,-0
 .0557439545\C,0.0233450066,0.,1.2499566191\C,1.3191081381,0.,2.0192931
 633\C,2.4705511955,0.,1.3708161238\H,0.7198776417,0.,-0.740350621\H,-1
 .0853583988,0.,-0.5119987507\H,-0.8771022095,0.,1.8382861606\H,2.51527
 04208,0.,0.2971238482\H,3.4249393555,0.,1.8620885258\C,1.2592804028,0.
 ,3.5386536011\C,0.0522873891,0.,4.239861749\C,0.0184130213,0.,5.624606
 5136\C,1.191906635,0.,6.3555811548\C,2.4020847475,0.,5.6816816927\C,2.
 4328668692,0.,4.2999700314\H,-0.8866924336,0.,3.7175845405\H,-0.934183
 4374,0.,6.1304097609\H,1.1658339748,0.,7.4336465631\H,3.3286948218,0.,
 6.2336685373\H,3.3925933259,0.,3.8148647409\\Version=ES64L-G16RevB.01\
 State=1-A'\HF=-383.5014768\RMSD=3.614e-09\RMSF=4.966e-05\Dipole=-0.002
 9873,0.,0.0210388\Quadrupole=1.7542157,-3.1245931,1.3703774,0.,-0.0543
 815,0.\PG=CS [SG(C10H10)]\\@


 ABOVE ALL I AM AN OPTIMIST FOR NUMBER THEORY,
 AND I HOLD THE HOPE THAT WE MAY NOT BE FAR FROM
 A TIME WHEN IRREFUTABLE ARITHMETIC WILL CELEBRATE
 ITS TRIUMPHS IN PHYSICS AND CHEMISTRY.
   -- HERMANN MINKOWSKI, 1905
 Job cpu time:       0 days  0 hours  0 minutes 41.7 seconds.
 Elapsed time:       0 days  0 hours  0 minutes 41.5 seconds.
 File lengths (MBytes):  RWF=      6 Int=      0 D2E=      0 Chk=      2 Scr=      1
 Normal termination of Gaussian 16 at Mon Oct  4 00:37:23 2021.
