 Entering Gaussian System, Link 0=/home/apl/G16/g16/g16
 Initial command:
 /home/apl/G16/g16/l1.exe "/home/nakano/results/FrontierOrbital/7/Gau-74283.inp" -scrdir="/home/nakano/results/FrontierOrbital/7/"
 Entering Link 1 = /home/apl/G16/g16/l1.exe PID=     74284.

 Copyright (c) 1988-2017, Gaussian, Inc.  All Rights Reserved.

 This is part of the Gaussian(R) 16 program.  It is based on
 the Gaussian(R) 09 system (copyright 2009, Gaussian, Inc.),
 the Gaussian(R) 03 system (copyright 2003, Gaussian, Inc.),
 the Gaussian(R) 98 system (copyright 1998, Gaussian, Inc.),
 the Gaussian(R) 94 system (copyright 1995, Gaussian, Inc.),
 the Gaussian 92(TM) system (copyright 1992, Gaussian, Inc.),
 the Gaussian 90(TM) system (copyright 1990, Gaussian, Inc.),
 the Gaussian 88(TM) system (copyright 1988, Gaussian, Inc.),
 the Gaussian 86(TM) system (copyright 1986, Carnegie Mellon
 University), and the Gaussian 82(TM) system (copyright 1983,
 Carnegie Mellon University). Gaussian is a federally registered
 trademark of Gaussian, Inc.

 This software contains proprietary and confidential information,
 including trade secrets, belonging to Gaussian, Inc.

 This software is provided under written license and may be
 used, copied, transmitted, or stored only in accord with that
 written license.

 The following legend is applicable only to US Government
 contracts under FAR:

                    RESTRICTED RIGHTS LEGEND

 Use, reproduction and disclosure by the US Government is
 subject to restrictions as set forth in subparagraphs (a)
 and (c) of the Commercial Computer Software - Restricted
 Rights clause in FAR 52.227-19.

 Gaussian, Inc.
 340 Quinnipiac St., Bldg. 40, Wallingford CT 06492


 ---------------------------------------------------------------
 Warning -- This program may not be used in any manner that
 competes with the business of Gaussian, Inc. or will provide
 assistance to any competitor of Gaussian, Inc.  The licensee
 of this program is prohibited from giving any competitor of
 Gaussian, Inc. access to this program.  By using this program,
 the user acknowledges that Gaussian, Inc. is engaged in the
 business of creating and licensing software in the field of
 computational chemistry and represents and warrants to the
 licensee that it is not a competitor of Gaussian, Inc. and that
 it will not use this program in any manner prohibited above.
 ---------------------------------------------------------------


 Cite this work as:
 Gaussian 16, Revision B.01,
 M. J. Frisch, G. W. Trucks, H. B. Schlegel, G. E. Scuseria,
 M. A. Robb, J. R. Cheeseman, G. Scalmani, V. Barone,
 G. A. Petersson, H. Nakatsuji, X. Li, M. Caricato, A. V. Marenich,
 J. Bloino, B. G. Janesko, R. Gomperts, B. Mennucci, H. P. Hratchian,
 J. V. Ortiz, A. F. Izmaylov, J. L. Sonnenberg, D. Williams-Young,
 F. Ding, F. Lipparini, F. Egidi, J. Goings, B. Peng, A. Petrone,
 T. Henderson, D. Ranasinghe, V. G. Zakrzewski, J. Gao, N. Rega,
 G. Zheng, W. Liang, M. Hada, M. Ehara, K. Toyota, R. Fukuda,
 J. Hasegawa, M. Ishida, T. Nakajima, Y. Honda, O. Kitao, H. Nakai,
 T. Vreven, K. Throssell, J. A. Montgomery, Jr., J. E. Peralta,
 F. Ogliaro, M. J. Bearpark, J. J. Heyd, E. N. Brothers, K. N. Kudin,
 V. N. Staroverov, T. A. Keith, R. Kobayashi, J. Normand,
 K. Raghavachari, A. P. Rendell, J. C. Burant, S. S. Iyengar,
 J. Tomasi, M. Cossi, J. M. Millam, M. Klene, C. Adamo, R. Cammi,
 J. W. Ochterski, R. L. Martin, K. Morokuma, O. Farkas,
 J. B. Foresman, and D. J. Fox, Gaussian, Inc., Wallingford CT, 2016.

 ******************************************
 Gaussian 16:  ES64L-G16RevB.01 20-Dec-2017
                 4-Oct-2021
 ******************************************
 ------------------------
 # hf/sto-6g pop=full opt
 ------------------------
 1/18=20,19=15,38=1/1,3;
 2/9=110,12=2,17=6,18=5,40=1/2;
 3/6=6,11=9,25=1,30=1,71=1/1,2,3;
 4//1;
 5/5=2,38=5/2;
 6/7=3,28=1/1;
 7//1,2,3,16;
 1/18=20,19=15/3(2);
 2/9=110/2;
 99//99;
 2/9=110/2;
 3/6=6,11=9,25=1,30=1,71=1/1,2,3;
 4/5=5,16=3,69=1/1;
 5/5=2,38=5/2;
 7//1,2,3,16;
 1/18=20,19=15/3(-5);
 2/9=110/2;
 6/7=3,19=2,28=1/1;
 99/9=1/99;
 -------------------------------
 CH2CHC-OCH3-CH2 molecule : Opt.
 -------------------------------
 Symbolic Z-matrix:
 Charge =  0 Multiplicity = 1
 C1
 C2                   1     1.4
 C3                   2     1.4      1     120.
 C4                   3     1.4      2     120.     1     0.       0
 H5                   1     1.1      2     120.     3     0.       0
 H6                   1     1.1      2     120.     3     180.     0
 H7                   2     1.1      3     120.     4     180.     0
 H8                   4     1.1      3     120.     2     180.     0
 H9                   4     1.1      3     120.     2     0.       0
 O10                  3     1.4      2     110.     1     180.     0
 C11                  10    1.4      3     110.     2     180.     0
 H12                  11    1.1      10    110.     3     180.     0
 H13                  11    1.1      10    110.     12    120.     0
 H14                  11    1.1      10    110.     12   -120.     0


 GradGradGradGradGradGradGradGradGradGradGradGradGradGradGradGradGradGrad
 Berny optimization.
 Initialization pass.
                           ----------------------------
                           !    Initial Parameters    !
                           ! (Angstroms and Degrees)  !
 --------------------------                            --------------------------
 ! Name  Definition              Value          Derivative Info.                !
 --------------------------------------------------------------------------------
 ! R1    R(1,2)                  1.4            estimate D2E/DX2                !
 ! R2    R(1,5)                  1.1            estimate D2E/DX2                !
 ! R3    R(1,6)                  1.1            estimate D2E/DX2                !
 ! R4    R(2,3)                  1.4            estimate D2E/DX2                !
 ! R5    R(2,7)                  1.1            estimate D2E/DX2                !
 ! R6    R(3,4)                  1.4            estimate D2E/DX2                !
 ! R7    R(3,10)                 1.4            estimate D2E/DX2                !
 ! R8    R(4,8)                  1.1            estimate D2E/DX2                !
 ! R9    R(4,9)                  1.1            estimate D2E/DX2                !
 ! R10   R(10,11)                1.4            estimate D2E/DX2                !
 ! R11   R(11,12)                1.1            estimate D2E/DX2                !
 ! R12   R(11,13)                1.1            estimate D2E/DX2                !
 ! R13   R(11,14)                1.1            estimate D2E/DX2                !
 ! A1    A(2,1,5)              120.0            estimate D2E/DX2                !
 ! A2    A(2,1,6)              120.0            estimate D2E/DX2                !
 ! A3    A(5,1,6)              120.0            estimate D2E/DX2                !
 ! A4    A(1,2,3)              120.0            estimate D2E/DX2                !
 ! A5    A(1,2,7)              120.0            estimate D2E/DX2                !
 ! A6    A(3,2,7)              120.0            estimate D2E/DX2                !
 ! A7    A(2,3,4)              120.0            estimate D2E/DX2                !
 ! A8    A(2,3,10)             110.0            estimate D2E/DX2                !
 ! A9    A(4,3,10)             130.0            estimate D2E/DX2                !
 ! A10   A(3,4,8)              120.0            estimate D2E/DX2                !
 ! A11   A(3,4,9)              120.0            estimate D2E/DX2                !
 ! A12   A(8,4,9)              120.0            estimate D2E/DX2                !
 ! A13   A(3,10,11)            110.0            estimate D2E/DX2                !
 ! A14   A(10,11,12)           110.0            estimate D2E/DX2                !
 ! A15   A(10,11,13)           110.0            estimate D2E/DX2                !
 ! A16   A(10,11,14)           110.0            estimate D2E/DX2                !
 ! A17   A(12,11,13)           108.9373         estimate D2E/DX2                !
 ! A18   A(12,11,14)           108.9373         estimate D2E/DX2                !
 ! A19   A(13,11,14)           108.9373         estimate D2E/DX2                !
 ! D1    D(5,1,2,3)              0.0            estimate D2E/DX2                !
 ! D2    D(5,1,2,7)            180.0            estimate D2E/DX2                !
 ! D3    D(6,1,2,3)            180.0            estimate D2E/DX2                !
 ! D4    D(6,1,2,7)              0.0            estimate D2E/DX2                !
 ! D5    D(1,2,3,4)              0.0            estimate D2E/DX2                !
 ! D6    D(1,2,3,10)           180.0            estimate D2E/DX2                !
 ! D7    D(7,2,3,4)            180.0            estimate D2E/DX2                !
 ! D8    D(7,2,3,10)             0.0            estimate D2E/DX2                !
 ! D9    D(2,3,4,8)            180.0            estimate D2E/DX2                !
 ! D10   D(2,3,4,9)              0.0            estimate D2E/DX2                !
 ! D11   D(10,3,4,8)             0.0            estimate D2E/DX2                !
 ! D12   D(10,3,4,9)           180.0            estimate D2E/DX2                !
 ! D13   D(2,3,10,11)          180.0            estimate D2E/DX2                !
 ! D14   D(4,3,10,11)            0.0            estimate D2E/DX2                !
 ! D15   D(3,10,11,12)         180.0            estimate D2E/DX2                !
 ! D16   D(3,10,11,13)         -60.0            estimate D2E/DX2                !
 ! D17   D(3,10,11,14)          60.0            estimate D2E/DX2                !
 --------------------------------------------------------------------------------
 Trust Radius=3.00D-01 FncErr=1.00D-07 GrdErr=1.00D-07 EigMax=2.50D+02 EigMin=1.00D-04
 Number of steps in this run=     59 maximum allowed number of steps=    100.
 GradGradGradGradGradGradGradGradGradGradGradGradGradGradGradGradGradGrad

                          Input orientation:
 ---------------------------------------------------------------------
 Center     Atomic      Atomic             Coordinates (Angstroms)
 Number     Number       Type             X           Y           Z
 ---------------------------------------------------------------------
      1          6           0        0.000000    0.000000    0.000000
      2          6           0        0.000000    0.000000    1.400000
      3          6           0        1.212436    0.000000    2.100000
      4          6           0        2.424871    0.000000    1.400000
      5          1           0        0.952628    0.000000   -0.550000
      6          1           0       -0.952628    0.000000   -0.550000
      7          1           0       -0.952628    0.000000    1.950000
      8          1           0        3.377499    0.000000    1.950000
      9          1           0        2.424871    0.000000    0.300000
     10          8           0        0.969328    0.000000    3.478731
     11          6           0        2.181764    0.000000    4.178731
     12          1           0        1.990751    0.000000    5.262019
     13          1           0        2.765997   -0.895177    3.919253
     14          1           0        2.765997    0.895177    3.919253
 ---------------------------------------------------------------------
                    Distance matrix (angstroms):
                    1          2          3          4          5
     1  C    0.000000
     2  C    1.400000   0.000000
     3  C    2.424871   1.400000   0.000000
     4  C    2.800000   2.424871   1.400000   0.000000
     5  H    1.100000   2.170253   2.662705   2.443358   0.000000
     6  H    1.100000   2.170253   3.421988   3.900000   1.905256
     7  H    2.170253   1.100000   2.170253   3.421988   3.143247
     8  H    3.900000   3.421988   2.170253   1.100000   3.482815
     9  H    2.443358   2.662705   2.170253   1.100000   1.700000
    10  O    3.611255   2.293626   1.400000   2.537662   4.028765
    11  C    4.714009   3.532908   2.293626   2.789345   4.885864
    12  H    5.626005   4.344914   3.256400   3.886342   5.904004
    13  H    4.879818   3.846910   2.554325   2.695245   4.905494
    14  H    4.879818   3.846910   2.554325   2.695245   4.905494
                    6          7          8          9         10
     6  H    0.000000
     7  H    2.500000   0.000000
     8  H    5.000000   4.330127   0.000000
     9  H    3.482815   3.758989   1.905256   0.000000
    10  O    4.463697   2.455796   2.852421   3.496131   0.000000
    11  C    5.673210   3.845992   2.529234   3.886342   1.400000
    12  H    6.514833   4.430909   3.590619   4.980973   2.055097
    13  H    5.882494   4.302031   2.247940   3.743889   2.055097
    14  H    5.882494   4.302031   2.247940   3.743889   2.055097
                   11         12         13         14
    11  C    0.000000
    12  H    1.100000   0.000000
    13  H    1.100000   1.790355   0.000000
    14  H    1.100000   1.790355   1.790355   0.000000
 Stoichiometry    C5H8O
 Framework group  CS[SG(C5H6O),X(H2)]
 Deg. of freedom    24
 Full point group                 CS      NOp   2
 Largest Abelian subgroup         CS      NOp   2
 Largest concise Abelian subgroup CS      NOp   2
                         Standard orientation:
 ---------------------------------------------------------------------
 Center     Atomic      Atomic             Coordinates (Angstroms)
 Number     Number       Type             X           Y           Z
 ---------------------------------------------------------------------
      1          6           0       -1.256198    2.106929    0.000000
      2          6           0       -0.043763    1.406929    0.000000
      3          6           0       -0.043763    0.006929    0.000000
      4          6           0       -1.256198   -0.693071    0.000000
      5          1           0       -2.208826    1.556929    0.000000
      6          1           0       -1.256198    3.206929    0.000000
      7          1           0        0.908865    1.956929    0.000000
      8          1           0       -1.256198   -1.793071    0.000000
      9          1           0       -2.208826   -0.143071    0.000000
     10          8           0        1.271807   -0.471899    0.000000
     11          6           0        1.271807   -1.871899    0.000000
     12          1           0        2.305469   -2.248121    0.000000
     13          1           0        0.754976   -2.248121    0.895177
     14          1           0        0.754976   -2.248121   -0.895177
 ---------------------------------------------------------------------
 Rotational constants (GHZ):           8.8548863           2.3702707           1.8923889
 Standard basis: STO-6G (5D, 7F)
 There are    31 symmetry adapted cartesian basis functions of A'  symmetry.
 There are     7 symmetry adapted cartesian basis functions of A"  symmetry.
 There are    31 symmetry adapted basis functions of A'  symmetry.
 There are     7 symmetry adapted basis functions of A"  symmetry.
    38 basis functions,   228 primitive gaussians,    38 cartesian basis functions
    23 alpha electrons       23 beta electrons
       nuclear repulsion energy       225.9080670650 Hartrees.
 NAtoms=   14 NActive=   14 NUniq=   13 SFac= 1.16D+00 NAtFMM=   60 NAOKFM=F Big=F
 Integral buffers will be    131072 words long.
 Raffenetti 1 integral format.
 Two-electron integral symmetry is turned on.
 One-electron integrals computed using PRISM.
 NBasis=    38 RedAO= T EigKep=  1.95D-01  NBF=    31     7
 NBsUse=    38 1.00D-06 EigRej= -1.00D+00 NBFU=    31     7
 ExpMin= 1.00D-01 ExpMax= 1.36D+03 ExpMxC= 2.49D+02 IAcc=3 IRadAn=         5 AccDes= 0.00D+00
 Harris functional with IExCor=  205 and IRadAn=       5 diagonalized for initial guess.
 HarFok:  IExCor=  205 AccDes= 0.00D+00 IRadAn=         5 IDoV= 1 UseB2=F ITyADJ=14
 ICtDFT=  3500011 ScaDFX=  1.000000  1.000000  1.000000  1.000000
 FoFCou: FMM=F IPFlag=           0 FMFlag=      100000 FMFlg1=           0
         NFxFlg=           0 DoJE=T BraDBF=F KetDBF=T FulRan=T
         wScrn=  0.000000 ICntrl=       500 IOpCl=  0 I1Cent=   200000004 NGrid=           0
         NMat0=    1 NMatS0=      1 NMatT0=    0 NMatD0=    1 NMtDS0=    0 NMtDT0=    0
 Petite list used in FoFCou.
 Initial guess orbital symmetries:
       Occupied  (A') (A') (A') (A') (A') (A') (A') (A') (A') (A')
                 (A') (A') (A') (A') (A") (A') (A') (A') (A') (A")
                 (A') (A") (A")
       Virtual   (A") (A") (A') (A') (A') (A') (A') (A') (A") (A')
                 (A') (A') (A') (A') (A')
 The electronic state of the initial guess is 1-A'.
 Keep R1 ints in memory in symmetry-blocked form, NReq=1159937.
 Requested convergence on RMS density matrix=1.00D-08 within 128 cycles.
 Requested convergence on MAX density matrix=1.00D-06.
 Requested convergence on             energy=1.00D-06.
 No special actions if energy rises.
 SCF Done:  E(RHF) =  -267.984965327     A.U. after   13 cycles
            NFock= 13  Conv=0.73D-08     -V/T= 2.0010

 **********************************************************************

            Population analysis using the SCF Density.

 **********************************************************************

 Orbital symmetries:
       Occupied  (A') (A') (A') (A') (A') (A') (A') (A') (A') (A')
                 (A') (A') (A') (A") (A') (A') (A') (A') (A') (A")
                 (A') (A") (A")
       Virtual   (A") (A") (A') (A') (A') (A') (A') (A") (A') (A')
                 (A') (A') (A') (A') (A')
 The electronic state is 1-A'.
 Alpha  occ. eigenvalues --  -20.56277 -11.25186 -11.23530 -11.17969 -11.17101
 Alpha  occ. eigenvalues --  -11.14357  -1.33890  -1.03046  -0.90611  -0.89861
 Alpha  occ. eigenvalues --   -0.78520  -0.66210  -0.64170  -0.60154  -0.59067
 Alpha  occ. eigenvalues --   -0.55342  -0.50533  -0.47811  -0.46018  -0.44638
 Alpha  occ. eigenvalues --   -0.41636  -0.33403  -0.23051
 Alpha virt. eigenvalues --    0.21440   0.40571   0.51735   0.59488   0.62733
 Alpha virt. eigenvalues --    0.65522   0.65880   0.68068   0.69658   0.71145
 Alpha virt. eigenvalues --    0.78127   0.81359   0.82852   1.01083   1.02179
     Molecular Orbital Coefficients:
                           1         2         3         4         5
                           O         O         O         O         O
     Eigenvalues --   -20.56277 -11.25186 -11.23530 -11.17969 -11.17101
   1 1   C  1S          0.00000   0.00000  -0.00020   0.04119   0.99455
   2        2S          0.00001   0.00000   0.00003  -0.00339   0.02223
   3        2PX         0.00002   0.00000  -0.00003  -0.00246   0.00073
   4        2PY         0.00003   0.00000   0.00000   0.00154  -0.00044
   5        2PZ         0.00000   0.00000   0.00000   0.00000   0.00000
   6 2   C  1S         -0.00001  -0.00003   0.00432   0.99443  -0.04080
   7        2S          0.00020  -0.00009  -0.00446   0.02283  -0.00526
   8        2PX         0.00020   0.00003   0.00003  -0.00058   0.00258
   9        2PY        -0.00008   0.00008   0.00305  -0.00077  -0.00142
  10        2PZ         0.00000   0.00000   0.00000   0.00000   0.00000
  11 3   C  1S          0.00029  -0.00365   0.99539  -0.00383   0.00040
  12        2S         -0.00263  -0.00054   0.02172  -0.00475   0.00026
  13        2PX        -0.00255  -0.00024  -0.00048   0.00002  -0.00003
  14        2PY         0.00085   0.00060   0.00103  -0.00308   0.00011
  15        2PZ         0.00000   0.00000   0.00000   0.00000   0.00000
  16 4   C  1S         -0.00001  -0.00011   0.00392  -0.00051  -0.00095
  17        2S         -0.00003   0.00007  -0.00397   0.00006  -0.00018
  18        2PX         0.00016  -0.00008  -0.00233   0.00000   0.00003
  19        2PY        -0.00031   0.00008  -0.00143   0.00000  -0.00020
  20        2PZ         0.00000   0.00000   0.00000   0.00000   0.00000
  21 5   H  1S         -0.00001   0.00000  -0.00009  -0.00018  -0.00429
  22 6   H  1S         -0.00001   0.00000  -0.00002  -0.00024  -0.00426
  23 7   H  1S         -0.00016  -0.00001  -0.00009  -0.00425   0.00013
  24 8   H  1S         -0.00005  -0.00008  -0.00008  -0.00002  -0.00004
  25 9   H  1S          0.00009  -0.00005  -0.00002  -0.00008   0.00016
  26 10  O  1S          0.99669   0.00022   0.00020   0.00001   0.00000
  27        2S          0.01548  -0.00293  -0.00274   0.00009  -0.00002
  28        2PX        -0.00237  -0.00025   0.00144  -0.00010   0.00001
  29        2PY        -0.00169   0.00182  -0.00080  -0.00004  -0.00002
  30        2PZ         0.00000   0.00000   0.00000   0.00000   0.00000
  31 11  C  1S          0.00032   0.99527   0.00383   0.00002   0.00001
  32        2S         -0.00281   0.02279  -0.00032  -0.00003   0.00000
  33        2PX         0.00003  -0.00009   0.00045   0.00004   0.00000
  34        2PY        -0.00255  -0.00019  -0.00052  -0.00003   0.00000
  35        2PZ         0.00000   0.00000   0.00000   0.00000   0.00000
  36 12  H  1S          0.00013  -0.00433  -0.00014  -0.00001   0.00000
  37 13  H  1S          0.00017  -0.00434  -0.00017   0.00000   0.00000
  38 14  H  1S          0.00017  -0.00434  -0.00017   0.00000   0.00000
                           6         7         8         9        10
                           O         O         O         O         O
     Eigenvalues --   -11.14357  -1.33890  -1.03046  -0.90611  -0.89861
   1 1   C  1S          0.00103  -0.00300  -0.09824  -0.13689   0.00388
   2        2S         -0.00013   0.00760   0.27111   0.40132  -0.01399
   3        2PX         0.00003   0.00352   0.06131   0.05210  -0.01862
   4        2PY         0.00021  -0.00228  -0.05173  -0.01251  -0.00736
   5        2PZ         0.00000   0.00000   0.00000   0.00000   0.00000
   6 2   C  1S          0.00050  -0.01781  -0.14834  -0.08081   0.02990
   7        2S          0.00009   0.04071   0.40208   0.23661  -0.08448
   8        2PX        -0.00003   0.00351  -0.05327  -0.08049  -0.03725
   9        2PY         0.00001  -0.02317  -0.05509   0.12295   0.00098
  10        2PZ         0.00000   0.00000   0.00000   0.00000   0.00000
  11 3   C  1S         -0.00354  -0.07443  -0.12726   0.09204  -0.01308
  12        2S         -0.00457   0.18349   0.35745  -0.28436   0.02814
  13        2PX         0.00266   0.08689  -0.06951   0.04449  -0.19292
  14        2PY         0.00150  -0.03254   0.08808   0.09869  -0.08152
  15        2PZ         0.00000   0.00000   0.00000   0.00000   0.00000
  16 4   C  1S          0.99533  -0.01414  -0.08071   0.11150  -0.11786
  17        2S          0.02242   0.03613   0.21892  -0.32398   0.33647
  18        2PX         0.00085   0.01883   0.04986  -0.05778   0.02744
  19        2PY         0.00049   0.00880   0.04788  -0.01764   0.00321
  20        2PZ         0.00000   0.00000   0.00000   0.00000   0.00000
  21 5   H  1S          0.00015   0.00092   0.06649   0.10564   0.01192
  22 6   H  1S         -0.00005   0.00059   0.05258   0.12103  -0.00695
  23 7   H  1S         -0.00002   0.00715   0.07990   0.07013  -0.04482
  24 8   H  1S         -0.00428   0.00395   0.04011  -0.09263   0.11443
  25 9   H  1S         -0.00432   0.00273   0.05742  -0.07979   0.10372
  26 10  O  1S         -0.00001  -0.20762   0.03648   0.00150   0.06624
  27        2S          0.00009   0.77990  -0.15197  -0.00925  -0.29466
  28        2PX        -0.00006  -0.09399  -0.05902   0.09913   0.02879
  29        2PY        -0.00013  -0.06473   0.08998  -0.10585  -0.16795
  30        2PZ         0.00000   0.00000   0.00000   0.00000   0.00000
  31 11  C  1S          0.00013  -0.07285   0.05272  -0.09189  -0.15179
  32        2S         -0.00003   0.18659  -0.15902   0.28855   0.47076
  33        2PX         0.00012  -0.00862  -0.00990   0.02816  -0.02022
  34        2PY        -0.00012   0.09390  -0.03840  -0.00709  -0.07336
  35        2PZ         0.00000   0.00000   0.00000   0.00000   0.00000
  36 12  H  1S         -0.00004   0.01924  -0.03500   0.09341   0.14050
  37 13  H  1S         -0.00006   0.02071  -0.02871   0.07242   0.15498
  38 14  H  1S         -0.00006   0.02071  -0.02871   0.07242   0.15498
                          11        12        13        14        15
                           O         O         O         O         O
     Eigenvalues --    -0.78520  -0.66210  -0.64170  -0.60154  -0.59067
   1 1   C  1S         -0.11866  -0.05242  -0.00603   0.00000  -0.00640
   2        2S          0.36826   0.17790   0.02124   0.00000   0.03160
   3        2PX        -0.09937  -0.16551   0.14167   0.00000  -0.23630
   4        2PY         0.04891   0.05961   0.19059   0.00000   0.06084
   5        2PZ         0.00000   0.00000   0.00000   0.02097   0.00000
   6 2   C  1S          0.09341   0.07414  -0.02322   0.00000   0.02498
   7        2S         -0.28525  -0.24187   0.08838   0.00000  -0.08883
   8        2PX        -0.13805  -0.09215   0.15976   0.00000   0.19197
   9        2PY         0.14423  -0.13490   0.24998   0.00000  -0.10770
  10        2PZ         0.00000   0.00000   0.00000   0.05264   0.00000
  11 3   C  1S          0.06149  -0.09009   0.02527   0.00000   0.02059
  12        2S         -0.18849   0.31684  -0.06722   0.00000  -0.06083
  13        2PX        -0.04728   0.08350   0.14044   0.00000   0.27738
  14        2PY        -0.19808  -0.10694  -0.19601   0.00000   0.15084
  15        2PZ         0.00000   0.00000   0.00000   0.17407   0.00000
  16 4   C  1S         -0.07549   0.07222  -0.02397   0.00000  -0.01665
  17        2S          0.23028  -0.24225   0.08371   0.00000   0.07482
  18        2PX        -0.05389   0.20430   0.04884   0.00000  -0.27207
  19        2PY        -0.02573   0.05465  -0.23722   0.00000  -0.08620
  20        2PZ         0.00000   0.00000   0.00000   0.06690   0.00000
  21 5   H  1S          0.18513   0.13982  -0.16694   0.00000   0.18136
  22 6   H  1S          0.16602   0.11938   0.14469   0.00000   0.06407
  23 7   H  1S         -0.12831  -0.20976   0.21970   0.00000   0.04971
  24 8   H  1S          0.09884  -0.13725   0.21954   0.00000   0.11166
  25 9   H  1S          0.12114  -0.20142  -0.10016   0.00000   0.20913
  26 10  O  1S         -0.04707   0.04077   0.01737   0.00000  -0.01308
  27        2S          0.21886  -0.20205  -0.09152   0.00000   0.06936
  28        2PX         0.04662  -0.31232  -0.20190   0.00000  -0.02517
  29        2PY        -0.05122   0.08665   0.03782   0.00000   0.37405
  30        2PZ         0.00000   0.00000   0.00000   0.45038   0.00000
  31 11  C  1S          0.06611  -0.01291   0.00802   0.00000  -0.00713
  32        2S         -0.20775   0.03243  -0.03335   0.00000   0.00213
  33        2PX        -0.00061  -0.18019  -0.22456   0.00000   0.06122
  34        2PY         0.13530  -0.13719  -0.04692   0.00000  -0.29038
  35        2PZ         0.00000   0.00000   0.00000   0.49386   0.00000
  36 12  H  1S         -0.10049  -0.05915  -0.14580   0.00000   0.13306
  37 13  H  1S         -0.09657   0.10605   0.08546   0.30844   0.07273
  38 14  H  1S         -0.09657   0.10605   0.08546  -0.30844   0.07273
                          16        17        18        19        20
                           O         O         O         O         O
     Eigenvalues --    -0.55342  -0.50533  -0.47811  -0.46018  -0.44638
   1 1   C  1S         -0.00847   0.02599  -0.00535   0.00655   0.00000
   2        2S          0.03372  -0.08905   0.00945  -0.01699   0.00000
   3        2PX         0.02025  -0.14965   0.38776  -0.06931   0.00000
   4        2PY         0.33899   0.23853   0.13720   0.25696   0.00000
   5        2PZ         0.00000   0.00000   0.00000   0.00000   0.16626
   6 2   C  1S          0.03036   0.01070   0.00995  -0.01301   0.00000
   7        2S         -0.10304  -0.03089  -0.05145   0.04276   0.00000
   8        2PX         0.09883   0.31555  -0.30799   0.00680   0.00000
   9        2PY        -0.00605   0.01559   0.03930  -0.38895   0.00000
  10        2PZ         0.00000   0.00000   0.00000   0.00000   0.27970
  11 3   C  1S         -0.05009  -0.01062   0.00676  -0.00195   0.00000
  12        2S          0.17867   0.03312  -0.00827  -0.02381   0.00000
  13        2PX        -0.10477  -0.08586   0.06967  -0.09092   0.00000
  14        2PY        -0.06569  -0.02397   0.03309   0.41058   0.00000
  15        2PZ         0.00000   0.00000   0.00000   0.00000   0.43828
  16 4   C  1S         -0.01739  -0.00244  -0.00777   0.00562   0.00000
  17        2S          0.05898   0.00443   0.03421  -0.01673   0.00000
  18        2PX         0.19362  -0.11086  -0.21764  -0.04323   0.00000
  19        2PY         0.02490   0.36716   0.20143  -0.19021   0.00000
  20        2PZ         0.00000   0.00000   0.00000   0.00000   0.22088
  21 5   H  1S         -0.15927   0.02299  -0.35588  -0.11177   0.00000
  22 6   H  1S          0.30692   0.17991   0.14237   0.25618   0.00000
  23 7   H  1S          0.01850   0.23709  -0.26077  -0.16627   0.00000
  24 8   H  1S         -0.02335  -0.33826  -0.16519   0.20618   0.00000
  25 9   H  1S         -0.14108   0.25941   0.24330  -0.10022   0.00000
  26 10  O  1S         -0.00240   0.02124  -0.02356  -0.00399   0.00000
  27        2S          0.01903  -0.11234   0.12641   0.02310   0.00000
  28        2PX         0.11283  -0.06665  -0.02858   0.27880   0.00000
  29        2PY         0.10943  -0.21513   0.21270  -0.15547   0.00000
  30        2PZ         0.00000   0.00000   0.00000   0.00000   0.48944
  31 11  C  1S          0.00359  -0.01518   0.00152  -0.00800   0.00000
  32        2S         -0.02102   0.06882  -0.01752   0.04550   0.00000
  33        2PX         0.39726  -0.14040  -0.09755  -0.17801   0.00000
  34        2PY        -0.07982   0.14018  -0.16872   0.16781   0.00000
  35        2PZ         0.00000   0.00000   0.00000   0.00000  -0.28527
  36 12  H  1S          0.33517  -0.13962  -0.04251  -0.22759   0.00000
  37 13  H  1S         -0.13423   0.02021   0.08734   0.05577  -0.26061
  38 14  H  1S         -0.13423   0.02021   0.08734   0.05577   0.26061
                          21        22        23        24        25
                           O         O         O         V         V
     Eigenvalues --    -0.41636  -0.33403  -0.23051   0.21440   0.40571
   1 1   C  1S          0.00165   0.00000   0.00000   0.00000   0.00000
   2        2S         -0.00532   0.00000   0.00000   0.00000   0.00000
   3        2PX        -0.06033   0.00000   0.00000   0.00000   0.00000
   4        2PY        -0.04034   0.00000   0.00000   0.00000   0.00000
   5        2PZ         0.00000  -0.40564  -0.46888   0.65444   0.45495
   6 2   C  1S          0.01436   0.00000   0.00000   0.00000   0.00000
   7        2S         -0.05428   0.00000   0.00000   0.00000   0.00000
   8        2PX         0.07263   0.00000   0.00000   0.00000   0.00000
   9        2PY         0.11704   0.00000   0.00000   0.00000   0.00000
  10        2PZ         0.00000  -0.46838  -0.32214  -0.45821  -0.69464
  11 3   C  1S          0.01853   0.00000   0.00000   0.00000   0.00000
  12        2S         -0.08976   0.00000   0.00000   0.00000   0.00000
  13        2PX        -0.28465   0.00000   0.00000   0.00000   0.00000
  14        2PY        -0.06357   0.00000   0.00000   0.00000   0.00000
  15        2PZ         0.00000  -0.15734   0.37172  -0.42664   0.74023
  16 4   C  1S         -0.01559   0.00000   0.00000   0.00000   0.00000
  17        2S          0.05340   0.00000   0.00000   0.00000   0.00000
  18        2PX         0.23971   0.00000   0.00000   0.00000   0.00000
  19        2PY         0.13168   0.00000   0.00000   0.00000   0.00000
  20        2PZ         0.00000  -0.20031   0.62340   0.58108  -0.47868
  21 5   H  1S          0.06820   0.00000   0.00000   0.00000   0.00000
  22 6   H  1S         -0.04692   0.00000   0.00000   0.00000   0.00000
  23 7   H  1S          0.12938   0.00000   0.00000   0.00000   0.00000
  24 8   H  1S         -0.08707   0.00000   0.00000   0.00000   0.00000
  25 9   H  1S         -0.11645   0.00000   0.00000   0.00000   0.00000
  26 10  O  1S         -0.06418   0.00000   0.00000   0.00000   0.00000
  27        2S          0.36534   0.00000   0.00000   0.00000   0.00000
  28        2PX         0.53705   0.00000   0.00000   0.00000   0.00000
  29        2PY         0.38051   0.00000   0.00000   0.00000   0.00000
  30        2PZ         0.00000   0.63576  -0.29594   0.18029  -0.19309
  31 11  C  1S          0.01752   0.00000   0.00000   0.00000   0.00000
  32        2S         -0.07983   0.00000   0.00000   0.00000   0.00000
  33        2PX        -0.18850   0.00000   0.00000   0.00000   0.00000
  34        2PY        -0.21907   0.00000   0.00000   0.00000   0.00000
  35        2PZ         0.00000  -0.09124  -0.02105   0.00766  -0.05675
  36 12  H  1S         -0.18465   0.00000   0.00000   0.00000   0.00000
  37 13  H  1S          0.16695  -0.16397   0.05269  -0.03438   0.05648
  38 14  H  1S          0.16695   0.16397  -0.05269   0.03438  -0.05648
                          26        27        28        29        30
                           V         V         V         V         V
     Eigenvalues --     0.51735   0.59488   0.62733   0.65522   0.65880
   1 1   C  1S         -0.00062  -0.14151   0.00352  -0.00437  -0.03754
   2        2S          0.00320   0.93608  -0.03605   0.01104   0.24908
   3        2PX        -0.25920  -0.29683   0.07443  -0.12228   0.06925
   4        2PY        -0.12445  -0.00572  -0.17930  -0.53184   0.34000
   5        2PZ         0.00000   0.00000   0.00000   0.00000   0.00000
   6 2   C  1S          0.02198   0.02946   0.08254   0.07037   0.04615
   7        2S         -0.15555  -0.16768  -0.55843  -0.46449  -0.31147
   8        2PX        -0.23965   0.18456  -0.22241  -0.37504   0.06492
   9        2PY        -0.09330  -0.04845   0.02750  -0.35501   0.35071
  10        2PZ         0.00000   0.00000   0.00000   0.00000   0.00000
  11 3   C  1S          0.09299   0.01019  -0.00693  -0.06474  -0.06053
  12        2S         -0.51509  -0.06159   0.05716   0.38867   0.40505
  13        2PX        -0.47318   0.23351  -0.06955   0.10519  -0.07085
  14        2PY         0.31117   0.04814   0.23425  -0.36563   0.28655
  15        2PZ         0.00000   0.00000   0.00000   0.00000   0.00000
  16 4   C  1S         -0.04300  -0.12612   0.04007   0.03487   0.04678
  17        2S          0.24387   0.83670  -0.25366  -0.22078  -0.31563
  18        2PX        -0.15594  -0.27867   0.01833  -0.21781  -0.12258
  19        2PY         0.27743   0.00061   0.30513  -0.26114   0.35025
  20        2PZ         0.00000   0.00000   0.00000   0.00000   0.00000
  21 5   H  1S         -0.24467  -0.64453  -0.02997  -0.38938   0.10411
  22 6   H  1S          0.13094  -0.50632   0.18125   0.49615  -0.46061
  23 7   H  1S          0.41341  -0.02907   0.45621   0.72174  -0.04829
  24 8   H  1S          0.20037  -0.46928   0.39772  -0.14354   0.49858
  25 9   H  1S         -0.44050  -0.55335  -0.01089   0.12930  -0.11447
  26 10  O  1S         -0.09100   0.03615   0.04983   0.01513  -0.01351
  27        2S          0.61327  -0.24873  -0.34874  -0.09946   0.09464
  28        2PX        -0.56966   0.06293  -0.12137   0.22557  -0.11536
  29        2PY        -0.14087   0.19266   0.60147  -0.20072  -0.21106
  30        2PZ         0.00000   0.00000   0.00000   0.00000   0.00000
  31 11  C  1S          0.02641  -0.04833  -0.00740   0.00811   0.04208
  32        2S         -0.12896   0.27875  -0.04777  -0.02898  -0.26560
  33        2PX        -0.15915   0.08102  -0.04854   0.41571   0.77345
  34        2PY        -0.40094   0.24027   0.88652  -0.20560  -0.11603
  35        2PZ         0.00000   0.00000   0.00000   0.00000   0.00000
  36 12  H  1S          0.14527  -0.15910   0.30458  -0.42817  -0.60581
  37 13  H  1S         -0.11983   0.00261   0.21738   0.14632   0.42321
  38 14  H  1S         -0.11983   0.00261   0.21738   0.14632   0.42321
                          31        32        33        34        35
                           V         V         V         V         V
     Eigenvalues --     0.68068   0.69658   0.71145   0.78127   0.81359
   1 1   C  1S          0.00000  -0.10174  -0.02121   0.07356   0.06503
   2        2S          0.00000   0.69292   0.13071  -0.54362  -0.45691
   3        2PX         0.00000  -0.15513   0.20294   0.19297  -0.61890
   4        2PY         0.00000   0.23544   0.16973   0.20171  -0.25320
   5        2PZ         0.00971   0.00000   0.00000   0.00000   0.00000
   6 2   C  1S          0.00000   0.04511   0.08832   0.04897  -0.09972
   7        2S          0.00000  -0.27517  -0.61200  -0.36630   0.74497
   8        2PX         0.00000  -0.01624  -0.12609  -0.30706  -0.00148
   9        2PY         0.00000  -0.07607   0.16798   0.43374   0.46823
  10        2PZ        -0.02734   0.00000   0.00000   0.00000   0.00000
  11 3   C  1S          0.00000  -0.08178  -0.07591  -0.10287  -0.05667
  12        2S          0.00000   0.52354   0.51012   0.75878   0.42005
  13        2PX         0.00000  -0.09898  -0.07185  -0.06831  -0.06333
  14        2PY         0.00000  -0.18837   0.23929   0.26023  -0.38690
  15        2PZ         0.07139   0.00000   0.00000   0.00000   0.00000
  16 4   C  1S          0.00000   0.10198   0.04536  -0.05787   0.04854
  17        2S          0.00000  -0.68903  -0.30314   0.42328  -0.34345
  18        2PX         0.00000  -0.18237  -0.08879  -0.63619  -0.60986
  19        2PY         0.00000   0.02681  -0.00264  -0.35197   0.41682
  20        2PZ         0.00034   0.00000   0.00000   0.00000   0.00000
  21 5   H  1S          0.00000  -0.42210   0.15744   0.61905  -0.26706
  22 6   H  1S          0.00000  -0.55142  -0.22884   0.05353   0.40583
  23 7   H  1S          0.00000   0.20550   0.31253   0.19681  -0.50643
  24 8   H  1S          0.00000   0.33517   0.22641  -0.50095   0.49626
  25 9   H  1S          0.00000   0.29367   0.04761  -0.63300  -0.40192
  26 10  O  1S          0.00000  -0.00687   0.02848   0.00479   0.02519
  27        2S          0.00000   0.05053  -0.18295  -0.03343  -0.17493
  28        2PX         0.00000   0.27824   0.08787   0.15441   0.19129
  29        2PY         0.00000  -0.29023   0.17541  -0.15459   0.09517
  30        2PZ        -0.19631   0.00000   0.00000   0.00000   0.00000
  31 11  C  1S          0.00000   0.09555  -0.18247   0.05773  -0.03574
  32        2S          0.00000  -0.61399   1.23567  -0.40118   0.24283
  33        2PX         0.00000  -0.52793  -0.20183  -0.19665  -0.05714
  34        2PY         0.00000  -0.09269  -0.26110   0.04842   0.02037
  35        2PZ         1.10071   0.00000   0.00000   0.00000   0.00000
  36 12  H  1S          0.00000   0.71144  -0.43504   0.33164  -0.05180
  37 13  H  1S         -0.84674  -0.00182  -0.70787   0.13642  -0.14045
  38 14  H  1S          0.84674  -0.00182  -0.70787   0.13642  -0.14045
                          36        37        38
                           V         V         V
     Eigenvalues --     0.82852   1.01083   1.02179
   1 1   C  1S          0.03727  -0.01924   0.05256
   2        2S         -0.27691   0.13889  -0.43071
   3        2PX        -0.60886  -0.36227  -0.53692
   4        2PY         0.63043  -0.53200   0.28892
   5        2PZ         0.00000   0.00000   0.00000
   6 2   C  1S         -0.08792   0.05327  -0.02036
   7        2S          0.66027  -0.43173   0.15376
   8        2PX        -0.62341   0.29787  -0.80825
   9        2PY         0.06120   0.87458   0.34272
  10        2PZ         0.00000   0.00000   0.00000
  11 3   C  1S          0.01165  -0.06649   0.02207
  12        2S         -0.03054   0.55248  -0.23048
  13        2PX        -0.51145  -0.20951   0.97678
  14        2PY        -0.21990   0.80863   0.38961
  15        2PZ         0.00000   0.00000   0.00000
  16 4   C  1S          0.04387   0.02063  -0.06325
  17        2S         -0.33671  -0.14773   0.52042
  18        2PX        -0.06143   0.34564   0.60864
  19        2PY        -0.57355  -0.50237   0.41164
  20        2PZ         0.00000   0.00000   0.00000
  21 5   H  1S         -0.11383  -0.53998  -0.10270
  22 6   H  1S         -0.38691   0.31430  -0.05257
  23 7   H  1S          0.14231  -0.31833   0.30006
  24 8   H  1S         -0.32443  -0.29161   0.09994
  25 9   H  1S          0.38187   0.52945   0.07230
  26 10  O  1S         -0.00975  -0.01402   0.02432
  27        2S          0.07080   0.10570  -0.19393
  28        2PX        -0.23404  -0.11445   0.26056
  29        2PY         0.32804  -0.06326  -0.24636
  30        2PZ         0.00000   0.00000   0.00000
  31 11  C  1S         -0.02665   0.00884   0.00945
  32        2S          0.16254  -0.06761  -0.05827
  33        2PX         0.19428  -0.03752  -0.09366
  34        2PY         0.17994  -0.00966  -0.08874
  35        2PZ         0.00000   0.00000   0.00000
  36 12  H  1S         -0.17530   0.05082   0.06355
  37 13  H  1S          0.06545   0.02754  -0.04165
  38 14  H  1S          0.06545   0.02754  -0.04165
     Density Matrix:
                           1         2         3         4         5
   1 1   C  1S          2.07394
   2        2S         -0.23160   0.82701
   3        2PX         0.00364  -0.02696   0.60325
   4        2PY         0.00028   0.00589   0.00638   0.61430
   5        2PZ         0.00000   0.00000   0.00000   0.00000   0.82495
   6 2   C  1S          0.02220  -0.05857  -0.08849   0.05286   0.00000
   7        2S         -0.05905   0.10921   0.24684  -0.15261   0.00000
   8        2PX         0.09367  -0.26418  -0.34002   0.19849   0.00000
   9        2PY        -0.05151   0.13995   0.20894  -0.11229   0.00000
  10        2PZ         0.00000   0.00000   0.00000   0.00000   0.77729
  11 3   C  1S         -0.00523   0.01833   0.01338  -0.02087   0.00000
  12        2S          0.01812  -0.05741  -0.03821   0.08485   0.00000
  13        2PX        -0.00894   0.03877   0.01680  -0.01549   0.00000
  14        2PY         0.01854  -0.06676  -0.04722   0.07052   0.00000
  15        2PZ         0.00000   0.00000   0.00000   0.00000  -0.06790
  16 4   C  1S         -0.00426   0.01562  -0.00666  -0.01310   0.00000
  17        2S          0.01539  -0.05467   0.02705   0.05359   0.00000
  18        2PX        -0.00605   0.02567  -0.06599  -0.02250   0.00000
  19        2PY         0.01378  -0.05804   0.02233   0.03741   0.00000
  20        2PZ         0.00000   0.00000   0.00000   0.00000  -0.34584
  21 5   H  1S         -0.10288   0.29231  -0.47943  -0.27410   0.00000
  22 6   H  1S         -0.10068   0.28375  -0.00334   0.55347   0.00000
  23 7   H  1S          0.02683  -0.09729  -0.11247   0.00104   0.00000
  24 8   H  1S         -0.00790   0.03408  -0.01964  -0.02250   0.00000
  25 9   H  1S          0.01413  -0.05571   0.04354   0.02237   0.00000
  26 10  O  1S          0.00218  -0.00782  -0.00872   0.00668   0.00000
  27        2S         -0.01115   0.03909   0.04667  -0.03599   0.00000
  28        2PX         0.01004  -0.03787  -0.05093   0.02774   0.00000
  29        2PY        -0.00792   0.03685   0.03065  -0.01931   0.00000
  30        2PZ         0.00000   0.00000   0.00000   0.00000  -0.05662
  31 11  C  1S         -0.00119   0.00502   0.00367  -0.00339   0.00000
  32        2S          0.00551  -0.02242  -0.01726   0.01614   0.00000
  33        2PX        -0.00085   0.00545  -0.00050   0.00028   0.00000
  34        2PY         0.00681  -0.02945  -0.03246   0.01884   0.00000
  35        2PZ         0.00000   0.00000   0.00000   0.00000   0.01961
  36 12  H  1S         -0.00368   0.01588   0.01193  -0.01024   0.00000
  37 13  H  1S          0.00041  -0.00130   0.00070   0.00120   0.00988
  38 14  H  1S          0.00041  -0.00130   0.00070   0.00120  -0.00988
                           6         7         8         9        10
   6 2   C  1S          2.07445
   7        2S         -0.22654   0.80316
   8        2PX        -0.00364   0.02759   0.62034
   9        2PY         0.00016   0.00835   0.00555   0.59720
  10        2PZ         0.00000   0.00000   0.00000   0.00000   0.80831
  11 3   C  1S          0.02111  -0.05428  -0.00323   0.10307   0.00000
  12        2S         -0.05294   0.08555   0.00366  -0.28224   0.00000
  13        2PX        -0.00289   0.00981   0.00386  -0.00335   0.00000
  14        2PY        -0.10450   0.28543  -0.00189  -0.47448   0.00000
  15        2PZ         0.00000   0.00000   0.00000   0.00000   0.17139
  16 4   C  1S         -0.00552   0.02031  -0.00963  -0.02139   0.00000
  17        2S          0.01964  -0.06700   0.04147   0.08032   0.00000
  18        2PX         0.01292  -0.04182   0.02706   0.05866   0.00000
  19        2PY         0.02064  -0.08714   0.01480   0.07355   0.00000
  20        2PZ         0.00000   0.00000   0.00000   0.00000  -0.08340
  21 5   H  1S          0.02461  -0.08236   0.12504  -0.01063   0.00000
  22 6   H  1S          0.02679  -0.09948   0.06159  -0.09903   0.00000
  23 7   H  1S         -0.10019   0.29018   0.47741   0.27304   0.00000
  24 8   H  1S         -0.01658   0.06817  -0.01301  -0.07992   0.00000
  25 9   H  1S          0.01074  -0.04335   0.01866   0.04792   0.00000
  26 10  O  1S         -0.00581   0.02311   0.01395  -0.02021   0.00000
  27        2S          0.03114  -0.11657  -0.07231   0.10843   0.00000
  28        2PX        -0.01008   0.02952   0.03769  -0.05936   0.00000
  29        2PY         0.02405  -0.11284  -0.01862   0.08560   0.00000
  30        2PZ         0.00000   0.00000   0.00000   0.00000  -0.08368
  31 11  C  1S          0.00309  -0.01293  -0.00338   0.01287   0.00000
  32        2S         -0.01399   0.05533   0.01737  -0.05811   0.00000
  33        2PX         0.00262  -0.01290   0.00330   0.00885   0.00000
  34        2PY        -0.01851   0.08156   0.01989  -0.07662   0.00000
  35        2PZ         0.00000   0.00000   0.00000   0.00000  -0.00856
  36 12  H  1S          0.00598  -0.02506  -0.00409   0.03369   0.00000
  37 13  H  1S          0.00007  -0.00327  -0.00022  -0.00428   0.00634
  38 14  H  1S          0.00007  -0.00327  -0.00022  -0.00428  -0.00634
                          11        12        13        14        15
  11 3   C  1S          2.07439
  12        2S         -0.23619   0.85893
  13        2PX         0.01775  -0.02473   0.53992
  14        2PY        -0.00041  -0.02847   0.03586   0.63133
  15        2PZ         0.00000   0.00000   0.00000   0.00000   0.77063
  16 4   C  1S          0.02391  -0.06609   0.08352   0.05825   0.00000
  17        2S         -0.06182   0.12391  -0.21560  -0.15841   0.00000
  18        2PX        -0.09460   0.27762  -0.29785  -0.23239   0.00000
  19        2PY        -0.05017   0.14961  -0.19140  -0.11113   0.00000
  20        2PZ         0.00000   0.00000   0.00000   0.00000   0.74339
  21 5   H  1S          0.01210  -0.04878   0.01661  -0.05671   0.00000
  22 6   H  1S         -0.01757   0.06986  -0.00857   0.08236   0.00000
  23 7   H  1S          0.02273  -0.09143  -0.04429  -0.12469   0.00000
  24 8   H  1S          0.02487  -0.10025   0.08609   0.09640   0.00000
  25 9   H  1S          0.03029  -0.10355   0.09158   0.02941   0.00000
  26 10  O  1S          0.00546   0.00302  -0.03194   0.01293   0.00000
  27        2S          0.00035  -0.11005   0.04851  -0.03422   0.00000
  28        2PX         0.10870  -0.38996  -0.51026   0.27761   0.00000
  29        2PY        -0.02337   0.07535   0.12438  -0.03971   0.00000
  30        2PZ         0.00000   0.00000   0.00000   0.00000   0.16573
  31 11  C  1S         -0.00392   0.01794   0.01337  -0.01533   0.00000
  32        2S          0.01697  -0.07025  -0.05724   0.07496   0.00000
  33        2PX        -0.01046   0.05801   0.01800  -0.02117   0.00000
  34        2PY         0.01637  -0.07451  -0.09730   0.06247   0.00000
  35        2PZ         0.00000   0.00000   0.00000   0.00000  -0.06506
  36 12  H  1S         -0.02142   0.09584   0.08913  -0.06570   0.00000
  37 13  H  1S          0.00969  -0.04282  -0.02293   0.03365  -0.03028
  38 14  H  1S          0.00969  -0.04282  -0.02293   0.03365   0.03028
                          16        17        18        19        20
  16 4   C  1S          2.07229
  17        2S         -0.22404   0.80009
  18        2PX         0.00733  -0.04318   0.56892
  19        2PY         0.00229  -0.01532  -0.02371   0.59914
  20        2PZ         0.00000   0.00000   0.00000   0.00000   0.96402
  21 5   H  1S          0.01207  -0.04644   0.04779  -0.01750   0.00000
  22 6   H  1S         -0.00629   0.02636  -0.02660   0.02048   0.00000
  23 7   H  1S         -0.01370   0.05247   0.06472   0.04318   0.00000
  24 8   H  1S         -0.10166   0.28691  -0.00663  -0.55306   0.00000
  25 9   H  1S         -0.10737   0.30778  -0.46342   0.28118   0.00000
  26 10  O  1S         -0.00044  -0.00441   0.00434  -0.00891   0.00000
  27        2S         -0.00334   0.03946  -0.00329   0.05252   0.00000
  28        2PX        -0.03100   0.11651   0.14631   0.03352   0.00000
  29        2PY        -0.01066   0.05842   0.04399   0.03233   0.00000
  30        2PZ         0.00000   0.00000   0.00000   0.00000  -0.34720
  31 11  C  1S         -0.00381   0.01484   0.01007  -0.00391   0.00000
  32        2S          0.01497  -0.05609  -0.04309   0.01470   0.00000
  33        2PX        -0.01182   0.04654   0.01796  -0.03044   0.00000
  34        2PY         0.00412  -0.02605  -0.02879  -0.04242   0.00000
  35        2PZ         0.00000   0.00000   0.00000   0.00000  -0.04964
  36 12  H  1S         -0.00519   0.02124   0.00457  -0.02548   0.00000
  37 13  H  1S          0.00555  -0.01809   0.00131   0.02563   0.05753
  38 14  H  1S          0.00555  -0.01809   0.00131   0.02563  -0.05753
                          21        22        23        24        25
  21 5   H  1S          0.60003
  22 6   H  1S         -0.15228   0.59800
  23 7   H  1S          0.10833  -0.07166   0.58705
  24 8   H  1S          0.00541  -0.01117  -0.04320   0.60987
  25 9   H  1S         -0.01870   0.01083   0.01301  -0.14518   0.59892
  26 10  O  1S          0.00042   0.00390   0.00512   0.00335  -0.00407
  27        2S         -0.00403  -0.02157  -0.02438  -0.01847   0.01706
  28        2PX        -0.00592   0.02613   0.06213   0.05412  -0.11140
  29        2PY         0.00430  -0.01637  -0.01447  -0.00610  -0.00286
  30        2PZ         0.00000   0.00000   0.00000   0.00000   0.00000
  31 11  C  1S          0.00070  -0.00297  -0.00133   0.00758  -0.00527
  32        2S         -0.00329   0.01386   0.00601  -0.02828   0.02112
  33        2PX         0.00122  -0.00226  -0.00335   0.02179  -0.01967
  34        2PY        -0.00154   0.01670   0.01316   0.03312  -0.01145
  35        2PZ         0.00000   0.00000   0.00000   0.00000   0.00000
  36 12  H  1S          0.00441  -0.01151  -0.00877   0.00542  -0.00441
  37 13  H  1S         -0.00121   0.00234   0.00076  -0.01686   0.00539
  38 14  H  1S         -0.00121   0.00234   0.00076  -0.01686   0.00539
                          26        27        28        29        30
  26 10  O  1S          2.10342
  27        2S         -0.44312   1.96675
  28        2PX        -0.07529   0.44986   1.09647
  29        2PY        -0.05637   0.33721   0.24112   0.95127
  30        2PZ         0.00000   0.00000   0.00000   0.00000   1.86833
  31 11  C  1S          0.00506   0.00371   0.00846   0.10301   0.00000
  32        2S          0.00328  -0.11817  -0.03154  -0.36249   0.00000
  33        2PX        -0.00137  -0.00085   0.01951   0.01556   0.00000
  34        2PY        -0.03351   0.05489  -0.05564  -0.61979   0.00000
  35        2PZ         0.00000   0.00000   0.00000   0.00000   0.06205
  36 12  H  1S          0.02469  -0.13084  -0.12168   0.05837   0.00000
  37 13  H  1S          0.00471  -0.00530   0.08180   0.12269  -0.21695
  38 14  H  1S          0.00471  -0.00530   0.08180   0.12269   0.21695
                          31        32        33        34        35
  31 11  C  1S          2.07085
  32        2S         -0.22923   0.84953
  33        2PX         0.00416  -0.01776   0.68457
  34        2PY         0.01457  -0.01031  -0.01051   0.54004
  35        2PZ         0.00000   0.00000   0.00000   0.00000   0.66810
  36 12  H  1S         -0.08724   0.22947   0.56759  -0.16398   0.00000
  37 13  H  1S         -0.08658   0.22977  -0.28173  -0.17997   0.48105
  38 14  H  1S         -0.08658   0.22977  -0.28173  -0.17997  -0.48105
                          36        37        38
  36 12  H  1S          0.60434
  37 13  H  1S         -0.12888   0.62692
  38 14  H  1S         -0.12888  -0.14395   0.62692
    Full Mulliken population analysis:
                           1         2         3         4         5
   1 1   C  1S          2.07394
   2        2S         -0.05633   0.82701
   3        2PX         0.00000   0.00000   0.60325
   4        2PY         0.00000   0.00000   0.00000   0.61430
   5        2PZ         0.00000   0.00000   0.00000   0.00000   0.82495
   6 2   C  1S          0.00000  -0.00224  -0.00498  -0.00172   0.00000
   7        2S         -0.00226   0.04008   0.08239   0.02941   0.00000
   8        2PX        -0.00528   0.08818   0.06666   0.04682   0.00000
   9        2PY        -0.00167   0.02697   0.04928  -0.00857   0.00000
  10        2PZ         0.00000   0.00000   0.00000   0.00000   0.16514
  11 3   C  1S          0.00000   0.00005   0.00003   0.00008   0.00000
  12        2S          0.00005  -0.00383  -0.00169  -0.00652   0.00000
  13        2PX         0.00002  -0.00172  -0.00016  -0.00093   0.00000
  14        2PY         0.00007  -0.00513  -0.00284  -0.00557   0.00000
  15        2PZ         0.00000   0.00000   0.00000   0.00000  -0.00170
  16 4   C  1S          0.00000   0.00001   0.00000   0.00002   0.00000
  17        2S          0.00001  -0.00172   0.00000  -0.00235   0.00000
  18        2PX         0.00000   0.00000  -0.00069   0.00000   0.00000
  19        2PY         0.00002  -0.00255   0.00000  -0.00222   0.00000
  20        2PZ         0.00000   0.00000   0.00000   0.00000  -0.00362
  21 5   H  1S         -0.00649   0.14196   0.19259   0.06357   0.00000
  22 6   H  1S         -0.00635   0.13780   0.00000   0.25673   0.00000
  23 7   H  1S          0.00014  -0.00958  -0.01346  -0.00001   0.00000
  24 8   H  1S          0.00000   0.00011   0.00000   0.00011   0.00000
  25 9   H  1S          0.00004  -0.00338  -0.00129  -0.00157   0.00000
  26 10  O  1S          0.00000   0.00000   0.00000   0.00000   0.00000
  27        2S          0.00000   0.00007   0.00009   0.00007   0.00000
  28        2PX         0.00000   0.00006   0.00009   0.00006   0.00000
  29        2PY         0.00000   0.00006   0.00007   0.00003   0.00000
  30        2PZ         0.00000   0.00000   0.00000   0.00000  -0.00002
  31 11  C  1S          0.00000   0.00000   0.00000   0.00000   0.00000
  32        2S          0.00000  -0.00001   0.00000  -0.00001   0.00000
  33        2PX         0.00000   0.00000   0.00000   0.00000   0.00000
  34        2PY         0.00000  -0.00001  -0.00001  -0.00001   0.00000
  35        2PZ         0.00000   0.00000   0.00000   0.00000   0.00000
  36 12  H  1S          0.00000   0.00000   0.00000   0.00000   0.00000
  37 13  H  1S          0.00000   0.00000   0.00000   0.00000   0.00000
  38 14  H  1S          0.00000   0.00000   0.00000   0.00000   0.00000
                           6         7         8         9        10
   6 2   C  1S          2.07445
   7        2S         -0.05510   0.80316
   8        2PX         0.00000   0.00000   0.62034
   9        2PY         0.00000   0.00000   0.00000   0.59720
  10        2PZ         0.00000   0.00000   0.00000   0.00000   0.80831
  11 3   C  1S          0.00000  -0.00208   0.00000  -0.00670   0.00000
  12        2S         -0.00203   0.03140   0.00000   0.10878   0.00000
  13        2PX         0.00000   0.00000   0.00082   0.00000   0.00000
  14        2PY        -0.00680   0.11001   0.00000   0.15763   0.00000
  15        2PZ         0.00000   0.00000   0.00000   0.00000   0.03641
  16 4   C  1S          0.00000   0.00005   0.00002   0.00008   0.00000
  17        2S          0.00005  -0.00446  -0.00184  -0.00617   0.00000
  18        2PX         0.00003  -0.00185  -0.00026  -0.00352   0.00000
  19        2PY         0.00008  -0.00669  -0.00089  -0.00580   0.00000
  20        2PZ         0.00000   0.00000   0.00000   0.00000  -0.00209
  21 5   H  1S          0.00013  -0.00811  -0.01496  -0.00009   0.00000
  22 6   H  1S          0.00014  -0.00980  -0.00413  -0.00985   0.00000
  23 7   H  1S         -0.00632   0.14092   0.19178   0.06333   0.00000
  24 8   H  1S          0.00000   0.00062   0.00006   0.00093   0.00000
  25 9   H  1S          0.00002  -0.00176  -0.00079  -0.00144   0.00000
  26 10  O  1S          0.00000   0.00005   0.00003   0.00006   0.00000
  27        2S          0.00002  -0.00542  -0.00290  -0.00621   0.00000
  28        2PX         0.00001  -0.00093  -0.00059  -0.00268   0.00000
  29        2PY         0.00003  -0.00506  -0.00084  -0.00414   0.00000
  30        2PZ         0.00000   0.00000   0.00000   0.00000  -0.00134
  31 11  C  1S          0.00000   0.00000   0.00000   0.00000   0.00000
  32        2S          0.00000   0.00034   0.00006   0.00051   0.00000
  33        2PX         0.00000   0.00005   0.00000   0.00005   0.00000
  34        2PY         0.00000   0.00071   0.00011   0.00089   0.00000
  35        2PZ         0.00000   0.00000   0.00000   0.00000  -0.00001
  36 12  H  1S          0.00000  -0.00003   0.00000  -0.00005   0.00000
  37 13  H  1S          0.00000  -0.00001   0.00000   0.00002   0.00001
  38 14  H  1S          0.00000  -0.00001   0.00000   0.00002   0.00001
                          11        12        13        14        15
  11 3   C  1S          2.07439
  12        2S         -0.05745   0.85893
  13        2PX         0.00000   0.00000   0.53992
  14        2PY         0.00000   0.00000   0.00000   0.63133
  15        2PZ         0.00000   0.00000   0.00000   0.00000   0.77063
  16 4   C  1S          0.00000  -0.00253  -0.00470  -0.00189   0.00000
  17        2S         -0.00237   0.04548   0.07196   0.03053   0.00000
  18        2PX        -0.00533   0.09266   0.05839   0.05481   0.00000
  19        2PY        -0.00163   0.02883   0.04514  -0.00848   0.00000
  20        2PZ         0.00000   0.00000   0.00000   0.00000   0.15794
  21 5   H  1S          0.00002  -0.00198  -0.00070  -0.00171   0.00000
  22 6   H  1S         -0.00001   0.00064   0.00004   0.00096   0.00000
  23 7   H  1S          0.00012  -0.00901  -0.00233  -0.01344   0.00000
  24 8   H  1S          0.00013  -0.00987  -0.00577  -0.00959   0.00000
  25 9   H  1S          0.00016  -0.01020  -0.01096  -0.00024   0.00000
  26 10  O  1S          0.00000   0.00007  -0.00124  -0.00018   0.00000
  27        2S          0.00001  -0.02996   0.01590   0.00408   0.00000
  28        2PX        -0.00345   0.09491   0.12367   0.03872   0.00000
  29        2PY        -0.00027   0.00667   0.01735  -0.00358   0.00000
  30        2PZ         0.00000   0.00000   0.00000   0.00000   0.02335
  31 11  C  1S          0.00000   0.00007   0.00005   0.00008   0.00000
  32        2S          0.00006  -0.00600  -0.00367  -0.00686   0.00000
  33        2PX         0.00004  -0.00372  -0.00042  -0.00172   0.00000
  34        2PY         0.00008  -0.00682  -0.00793  -0.00516   0.00000
  35        2PZ         0.00000   0.00000   0.00000   0.00000  -0.00220
  36 12  H  1S         -0.00001   0.00123   0.00110   0.00078   0.00000
  37 13  H  1S          0.00002  -0.00212  -0.00045  -0.00186  -0.00067
  38 14  H  1S          0.00002  -0.00212  -0.00045  -0.00186  -0.00067
                          16        17        18        19        20
  16 4   C  1S          2.07229
  17        2S         -0.05449   0.80009
  18        2PX         0.00000   0.00000   0.56892
  19        2PY         0.00000   0.00000   0.00000   0.59914
  20        2PZ         0.00000   0.00000   0.00000   0.00000   0.96402
  21 5   H  1S          0.00003  -0.00282  -0.00142  -0.00123   0.00000
  22 6   H  1S          0.00000   0.00009   0.00000   0.00010   0.00000
  23 7   H  1S          0.00000   0.00048   0.00051   0.00041   0.00000
  24 8   H  1S         -0.00641   0.13933   0.00000   0.25654   0.00000
  25 9   H  1S         -0.00677   0.14947   0.18616   0.06521   0.00000
  26 10  O  1S          0.00000   0.00000   0.00001   0.00000   0.00000
  27        2S          0.00000   0.00105  -0.00013   0.00019   0.00000
  28        2PX         0.00002  -0.00377  -0.00706  -0.00017   0.00000
  29        2PY         0.00000  -0.00017  -0.00022   0.00026   0.00000
  30        2PZ         0.00000   0.00000   0.00000   0.00000  -0.00290
  31 11  C  1S          0.00000   0.00001   0.00001   0.00000   0.00000
  32        2S          0.00001  -0.00180  -0.00175  -0.00028   0.00000
  33        2PX         0.00002  -0.00189  -0.00086  -0.00083   0.00000
  34        2PY         0.00000  -0.00049  -0.00078   0.00008   0.00000
  35        2PZ         0.00000   0.00000   0.00000   0.00000  -0.00053
  36 12  H  1S          0.00000   0.00007   0.00002   0.00005   0.00000
  37 13  H  1S          0.00001  -0.00069   0.00005  -0.00072   0.00093
  38 14  H  1S          0.00001  -0.00069   0.00005  -0.00072   0.00093
                          21        22        23        24        25
  21 5   H  1S          0.60003
  22 6   H  1S         -0.02122   0.59800
  23 7   H  1S          0.00181  -0.00375   0.58705
  24 8   H  1S          0.00005   0.00000  -0.00007   0.60987
  25 9   H  1S         -0.00358   0.00010   0.00007  -0.02023   0.59892
  26 10  O  1S          0.00000   0.00000   0.00001   0.00000   0.00000
  27        2S          0.00000  -0.00001  -0.00077  -0.00025   0.00006
  28        2PX         0.00001  -0.00001  -0.00032  -0.00073   0.00043
  29        2PY         0.00000  -0.00001  -0.00049   0.00004   0.00000
  30        2PZ         0.00000   0.00000   0.00000   0.00000   0.00000
  31 11  C  1S          0.00000   0.00000   0.00000   0.00002   0.00000
  32        2S          0.00000   0.00000   0.00002  -0.00147   0.00007
  33        2PX         0.00000   0.00000   0.00000  -0.00143   0.00009
  34        2PY         0.00000   0.00000   0.00007   0.00007  -0.00002
  35        2PZ         0.00000   0.00000   0.00000   0.00000   0.00000
  36 12  H  1S          0.00000   0.00000  -0.00001   0.00004   0.00000
  37 13  H  1S          0.00000   0.00000   0.00000  -0.00135   0.00003
  38 14  H  1S          0.00000   0.00000   0.00000  -0.00135   0.00003
                          26        27        28        29        30
  26 10  O  1S          2.10342
  27        2S         -0.10242   1.96675
  28        2PX         0.00000   0.00000   1.09647
  29        2PY         0.00000   0.00000   0.00000   0.95127
  30        2PZ         0.00000   0.00000   0.00000   0.00000   1.86833
  31 11  C  1S          0.00000   0.00007   0.00000  -0.00348   0.00000
  32        2S          0.00008  -0.03217   0.00000   0.09388   0.00000
  33        2PX         0.00000   0.00000   0.00275   0.00000   0.00000
  34        2PY        -0.00138   0.01915   0.00000   0.18168   0.00000
  35        2PZ         0.00000   0.00000   0.00000   0.00000   0.00874
  36 12  H  1S          0.00011  -0.00933  -0.00461  -0.00380   0.00000
  37 13  H  1S          0.00002  -0.00038  -0.00155  -0.00800  -0.00713
  38 14  H  1S          0.00002  -0.00038  -0.00155  -0.00800  -0.00713
                          31        32        33        34        35
  31 11  C  1S          2.07085
  32        2S         -0.05576   0.84953
  33        2PX         0.00000   0.00000   0.68457
  34        2PY         0.00000   0.00000   0.00000   0.54004
  35        2PZ         0.00000   0.00000   0.00000   0.00000   0.66810
  36 12  H  1S         -0.00550   0.11144   0.24740   0.02601   0.00000
  37 13  H  1S         -0.00546   0.11158   0.06140   0.02855   0.18158
  38 14  H  1S         -0.00546   0.11158   0.06140   0.02855   0.18158
                          36        37        38
  36 12  H  1S          0.60434
  37 13  H  1S         -0.02148   0.62692
  38 14  H  1S         -0.02148  -0.02399   0.62692
     Gross orbital populations:
                           1
   1 1   C  1S          1.99591
   2        2S          1.17585
   3        2PX         0.96931
   4        2PY         0.98174
   5        2PZ         0.98475
   6 2   C  1S          1.99576
   7        2S          1.13560
   8        2PX         0.98240
   9        2PY         0.94883
  10        2PZ         1.00644
  11 3   C  1S          1.99592
  12        2S          1.11386
  13        2PX         0.83295
  14        2PY         0.95209
  15        2PZ         0.98310
  16 4   C  1S          1.99576
  17        2S          1.15290
  18        2PX         0.93775
  19        2PY         0.96385
  20        2PZ         1.11468
  21 5   H  1S          0.93589
  22 6   H  1S          0.93946
  23 7   H  1S          0.92716
  24 8   H  1S          0.94938
  25 9   H  1S          0.93860
  26 10  O  1S          1.99865
  27        2S          1.81718
  28        2PX         1.32978
  29        2PY         1.21330
  30        2PZ         1.88190
  31 11  C  1S          1.99550
  32        2S          1.16940
  33        2PX         1.04688
  34        2PY         0.80338
  35        2PZ         1.03727
  36 12  H  1S          0.92627
  37 13  H  1S          0.93527
  38 14  H  1S          0.93527
          Condensed to atoms (all electrons):
               1          2          3          4          5          6
     1  C    4.830781   0.568202  -0.029795  -0.013074   0.391625   0.388175
     2  C    0.568202   4.793261   0.427445  -0.033284  -0.023032  -0.023635
     3  C   -0.029795   0.427445   4.760303   0.558818  -0.004365   0.001627
     4  C   -0.013074  -0.033284   0.558818   4.895477  -0.005429   0.000185
     5  H    0.391625  -0.023032  -0.004365  -0.005429   0.600035  -0.021223
     6  H    0.388175  -0.023635   0.001627   0.000185  -0.021223   0.598003
     7  H   -0.022907   0.389704  -0.024655   0.001399   0.001812  -0.003745
     8  H    0.000220   0.001603  -0.025101   0.389455   0.000048  -0.000004
     9  H   -0.006202  -0.003968  -0.021240   0.394064  -0.003578   0.000096
    10  O    0.000584  -0.029909   0.286061  -0.012900   0.000005  -0.000019
    11  C   -0.000056   0.002692  -0.044108  -0.009071  -0.000002   0.000002
    12  H    0.000002  -0.000087   0.003099   0.000143   0.000000   0.000000
    13  H    0.000000   0.000017  -0.005080  -0.000423  -0.000001   0.000000
    14  H    0.000000   0.000017  -0.005080  -0.000423  -0.000001   0.000000
               7          8          9         10         11         12
     1  C   -0.022907   0.000220  -0.006202   0.000584  -0.000056   0.000002
     2  C    0.389704   0.001603  -0.003968  -0.029909   0.002692  -0.000087
     3  C   -0.024655  -0.025101  -0.021240   0.286061  -0.044108   0.003099
     4  C    0.001399   0.389455   0.394064  -0.012900  -0.009071   0.000143
     5  H    0.001812   0.000048  -0.003578   0.000005  -0.000002   0.000000
     6  H   -0.003745  -0.000004   0.000096  -0.000019   0.000002   0.000000
     7  H    0.587048  -0.000072   0.000068  -0.001572   0.000093  -0.000012
     8  H   -0.000072   0.609869  -0.020234  -0.000937  -0.002810   0.000039
     9  H    0.000068  -0.020234   0.598918   0.000481   0.000133  -0.000002
    10  O   -0.001572  -0.000937   0.000481   7.781391   0.269326  -0.017639
    11  C    0.000093  -0.002810   0.000133   0.269326   4.701577   0.379347
    12  H   -0.000012   0.000039  -0.000002  -0.017639   0.379347   0.604344
    13  H    0.000001  -0.001349   0.000029  -0.017030   0.377656  -0.021480
    14  H    0.000001  -0.001349   0.000029  -0.017030   0.377656  -0.021480
              13         14
     1  C    0.000000   0.000000
     2  C    0.000017   0.000017
     3  C   -0.005080  -0.005080
     4  C   -0.000423  -0.000423
     5  H   -0.000001  -0.000001
     6  H    0.000000   0.000000
     7  H    0.000001   0.000001
     8  H   -0.001349  -0.001349
     9  H    0.000029   0.000029
    10  O   -0.017030  -0.017030
    11  C    0.377656   0.377656
    12  H   -0.021480  -0.021480
    13  H    0.626919  -0.023991
    14  H   -0.023991   0.626919
 Mulliken charges:
               1
     1  C   -0.107555
     2  C   -0.069025
     3  C    0.122072
     4  C   -0.164938
     5  H    0.064105
     6  H    0.060538
     7  H    0.072836
     8  H    0.050621
     9  H    0.061404
    10  O   -0.240811
    11  C   -0.052434
    12  H    0.073725
    13  H    0.064731
    14  H    0.064731
 Sum of Mulliken charges =   0.00000
 Mulliken charges with hydrogens summed into heavy atoms:
               1
     1  C    0.017088
     2  C    0.003811
     3  C    0.122072
     4  C   -0.052913
    10  O   -0.240811
    11  C    0.150753
 Electronic spatial extent (au):  <R**2>=            655.2565
 Charge=              0.0000 electrons
 Dipole moment (field-independent basis, Debye):
    X=             -0.5295    Y=             -0.6100    Z=              0.0000  Tot=              0.8077
 Quadrupole moment (field-independent basis, Debye-Ang):
   XX=            -34.3248   YY=            -30.6467   ZZ=            -35.6709
   XY=             -1.6091   XZ=              0.0000   YZ=              0.0000
 Traceless Quadrupole moment (field-independent basis, Debye-Ang):
   XX=             -0.7773   YY=              2.9008   ZZ=             -2.1234
   XY=             -1.6091   XZ=              0.0000   YZ=              0.0000
 Octapole moment (field-independent basis, Debye-Ang**2):
  XXX=              3.4972  YYY=             -2.7988  ZZZ=              0.0000  XYY=              5.4082
  XXY=             -1.0108  XXZ=              0.0000  XZZ=              3.3842  YZZ=             -2.3885
  YYZ=              0.0000  XYZ=              0.0000
 Hexadecapole moment (field-independent basis, Debye-Ang**3):
 XXXX=           -286.0370 YYYY=           -461.3658 ZZZZ=            -34.4967 XXXY=             85.5709
 XXXZ=              0.0000 YYYX=             88.2169 YYYZ=              0.0000 ZZZX=              0.0000
 ZZZY=              0.0000 XXYY=           -123.0841 XXZZ=            -58.4401 YYZZ=            -89.4911
 XXYZ=              0.0000 YYXZ=              0.0000 ZZXY=             32.7357
 N-N= 2.259080670650D+02 E-N=-1.080654218420D+03  KE= 2.677157191925D+02
 Symmetry A'   KE= 2.557357030875D+02
 Symmetry A"   KE= 1.198001610494D+01
 Orbital energies and kinetic energies (alpha):
                                 1                 2
   1         O               -20.562765         29.105855
   2         O               -11.251858         15.895593
   3         O               -11.235298         15.901034
   4         O               -11.179693         15.896016
   5         O               -11.171008         15.899338
   6         O               -11.143566         15.897615
   7         O                -1.338901          2.431284
   8         O                -1.030464          1.538464
   9         O                -0.906105          1.574452
  10         O                -0.898610          1.468902
  11         O                -0.785199          1.441712
  12         O                -0.662097          1.472813
  13         O                -0.641696          0.984528
  14         O                -0.601537          1.228777
  15         O                -0.590667          1.304450
  16         O                -0.553424          1.113678
  17         O                -0.505335          1.211660
  18         O                -0.478109          1.241459
  19         O                -0.460179          1.433453
  20         O                -0.446375          1.455442
  21         O                -0.416359          2.055546
  22         O                -0.334031          1.786649
  23         O                -0.230507          1.519140
  24         V                 0.214405          1.740042
  25         V                 0.405710          2.076768
  26         V                 0.517352          2.932068
  27         V                 0.594877          2.661458
  28         V                 0.627331          2.823389
  29         V                 0.655222          2.411262
  30         V                 0.658805          2.406297
  31         V                 0.680682          2.215072
  32         V                 0.696581          2.930780
  33         V                 0.711452          3.022992
  34         V                 0.781270          2.834390
  35         V                 0.813589          2.931030
  36         V                 0.828517          3.039997
  37         V                 1.010833          3.174866
  38         V                 1.021785          3.480480
 Total kinetic energy from orbitals= 2.677157191925D+02
 Calling FoFJK, ICntrl=      2127 FMM=F ISym2X=1 I1Cent= 0 IOpClX= 0 NMat=1 NMatS=1 NMatT=0.
 ***** Axes restored to original set *****
 -------------------------------------------------------------------
 Center     Atomic                   Forces (Hartrees/Bohr)
 Number     Number              X              Y              Z
 -------------------------------------------------------------------
      1        6          -0.018238033    0.000000000    0.089054805
      2        6          -0.080194866    0.000000000   -0.155975705
      3        6           0.124558251    0.000000000   -0.014100578
      4        6          -0.048737798    0.000000000    0.062440571
      5        1          -0.030313290    0.000000000    0.003161780
      6        1           0.019578367    0.000000000    0.005600800
      7        1           0.017549064    0.000000000   -0.007579335
      8        1          -0.017702428    0.000000000   -0.019772510
      9        1           0.008425701    0.000000000    0.032579455
     10        8          -0.005181943    0.000000000   -0.019866650
     11        6           0.032419588    0.000000000    0.022206562
     12        1          -0.001938657    0.000000000   -0.011245805
     13        1          -0.000111978    0.008124440    0.006748304
     14        1          -0.000111978   -0.008124440    0.006748304
 -------------------------------------------------------------------
 Cartesian Forces:  Max     0.155975705 RMS     0.039903328

 GradGradGradGradGradGradGradGradGradGradGradGradGradGradGradGradGradGrad
 Berny optimization.
 FormGI is forming the generalized inverse of G from B-inverse, IUseBI=4.
 Internal  Forces:  Max     0.112212999 RMS     0.031320513
 Search for a local minimum.
 Step number   1 out of a maximum of   59
 All quantities printed in internal units (Hartrees-Bohrs-Radians)
 Mixed Optimization -- RFO/linear search
 Second derivative matrix not updated -- first step.
 ITU=  0
     Eigenvalues ---    0.01692   0.01692   0.02008   0.02089   0.02089
     Eigenvalues ---    0.02089   0.02089   0.02089   0.02089   0.10403
     Eigenvalues ---    0.10403   0.16000   0.16000   0.16000   0.16000
     Eigenvalues ---    0.16000   0.16000   0.16000   0.16000   0.22000
     Eigenvalues ---    0.25000   0.25000   0.25000   0.33682   0.33682
     Eigenvalues ---    0.33682   0.33682   0.33682   0.33682   0.33682
     Eigenvalues ---    0.33682   0.45621   0.45621   0.45621   0.45621
     Eigenvalues ---    0.45621
 RFO step:  Lambda=-1.03800640D-01 EMin= 1.69178039D-02
 Linear search not attempted -- first point.
 Maximum step size (   0.300) exceeded in Quadratic search.
    -- Step size scaled by   0.614
 Iteration  1 RMS(Cart)=  0.15730936 RMS(Int)=  0.00673409
 Iteration  2 RMS(Cart)=  0.01025034 RMS(Int)=  0.00009535
 Iteration  3 RMS(Cart)=  0.00002316 RMS(Int)=  0.00009467
 Iteration  4 RMS(Cart)=  0.00000000 RMS(Int)=  0.00009467
 ClnCor:  largest displacement from symmetrization is 1.80D-09 for atom    14.
 Variable       Old X    -DE/DX   Delta X   Delta X   Delta X     New X
                                 (Linear)    (Quad)   (Total)
    R1        2.64562  -0.09782   0.00000  -0.10726  -0.10726   2.53836
    R2        2.07870  -0.02783   0.00000  -0.03879  -0.03879   2.03991
    R3        2.07870  -0.01976   0.00000  -0.02753  -0.02753   2.05117
    R4        2.64562   0.11221   0.00000   0.12304   0.12304   2.76866
    R5        2.07870  -0.01899   0.00000  -0.02646  -0.02646   2.05224
    R6        2.64562  -0.08787   0.00000  -0.09635  -0.09635   2.54927
    R7        2.64562   0.00017   0.00000   0.00018   0.00018   2.64580
    R8        2.07870  -0.02522   0.00000  -0.03514  -0.03514   2.04356
    R9        2.07870  -0.03258   0.00000  -0.04540  -0.04540   2.03330
   R10        2.64562   0.03843   0.00000   0.04214   0.04214   2.68776
   R11        2.07870  -0.01074   0.00000  -0.01496  -0.01496   2.06373
   R12        2.07870  -0.00826   0.00000  -0.01152  -0.01152   2.06718
   R13        2.07870  -0.00826   0.00000  -0.01152  -0.01152   2.06718
    A1        2.09440   0.01379   0.00000   0.03209   0.03209   2.12649
    A2        2.09440  -0.00176   0.00000  -0.00410  -0.00410   2.09030
    A3        2.09440  -0.01203   0.00000  -0.02799  -0.02799   2.06640
    A4        2.09440   0.06300   0.00000   0.11947   0.11947   2.21386
    A5        2.09440  -0.02920   0.00000  -0.05439  -0.05439   2.04001
    A6        2.09440  -0.03380   0.00000  -0.06508  -0.06508   2.02931
    A7        2.09440   0.05445   0.00000   0.09450   0.09450   2.18890
    A8        1.91986  -0.01292   0.00000  -0.02243  -0.02243   1.89744
    A9        2.26893  -0.04153   0.00000  -0.07208  -0.07208   2.19685
   A10        2.09440   0.00563   0.00000   0.01309   0.01309   2.10749
   A11        2.09440   0.00594   0.00000   0.01384   0.01384   2.10823
   A12        2.09440  -0.01157   0.00000  -0.02693  -0.02693   2.06746
   A13        1.91986   0.03883   0.00000   0.06739   0.06739   1.98726
   A14        1.91986  -0.01062   0.00000  -0.02617  -0.02610   1.89377
   A15        1.91986   0.00996   0.00000   0.02392   0.02375   1.94362
   A16        1.91986   0.00996   0.00000   0.02392   0.02375   1.94362
   A17        1.90131  -0.00254   0.00000  -0.00734  -0.00727   1.89405
   A18        1.90131  -0.00254   0.00000  -0.00734  -0.00727   1.89405
   A19        1.90131  -0.00441   0.00000  -0.00740  -0.00776   1.89355
    D1        0.00000   0.00000   0.00000   0.00000   0.00000   0.00000
    D2        3.14159   0.00000   0.00000   0.00000   0.00000   3.14159
    D3        3.14159   0.00000   0.00000   0.00000   0.00000   3.14159
    D4        0.00000   0.00000   0.00000   0.00000   0.00000   0.00000
    D5        0.00000   0.00000   0.00000   0.00000   0.00000   0.00000
    D6        3.14159   0.00000   0.00000   0.00000   0.00000   3.14159
    D7        3.14159   0.00000   0.00000   0.00000   0.00000   3.14159
    D8        0.00000   0.00000   0.00000   0.00000   0.00000   0.00000
    D9        3.14159   0.00000   0.00000   0.00000   0.00000   3.14159
   D10        0.00000   0.00000   0.00000   0.00000   0.00000   0.00000
   D11        0.00000   0.00000   0.00000   0.00000   0.00000   0.00000
   D12        3.14159   0.00000   0.00000   0.00000   0.00000   3.14159
   D13        3.14159   0.00000   0.00000   0.00000   0.00000   3.14159
   D14        0.00000   0.00000   0.00000   0.00000   0.00000   0.00000
   D15        3.14159   0.00000   0.00000   0.00000   0.00000   3.14159
   D16       -1.04720  -0.00355   0.00000  -0.01050  -0.01085  -1.05804
   D17        1.04720   0.00355   0.00000   0.01050   0.01085   1.05804
         Item               Value     Threshold  Converged?
 Maximum Force            0.112213     0.000450     NO
 RMS     Force            0.031321     0.000300     NO
 Maximum Displacement     0.477505     0.001800     NO
 RMS     Displacement     0.152302     0.001200     NO
 Predicted change in Energy=-4.885256D-02
 GradGradGradGradGradGradGradGradGradGradGradGradGradGradGradGradGradGrad

                          Input orientation:
[...]
  25 9   H  1S          0.00001  -0.00067   0.00012  -0.00054   0.00000
  26 10  O  1S          0.00000   0.00000   0.00000   0.00000   0.00000
  27        2S          0.00000   0.00006   0.00012   0.00003   0.00000
  28        2PX         0.00000   0.00008   0.00011   0.00004   0.00000
  29        2PY         0.00000   0.00002   0.00004   0.00001   0.00000
  30        2PZ         0.00000   0.00000   0.00000   0.00000  -0.00002
  31 11  C  1S          0.00000   0.00000   0.00000   0.00000   0.00000
  32        2S          0.00000   0.00000  -0.00001   0.00000   0.00000
  33        2PX         0.00000  -0.00001  -0.00002   0.00000   0.00000
  34        2PY         0.00000   0.00000   0.00000   0.00000   0.00000
  35        2PZ         0.00000   0.00000   0.00000   0.00000   0.00000
  36 12  H  1S          0.00000   0.00000   0.00000   0.00000   0.00000
  37 13  H  1S          0.00000   0.00000   0.00000   0.00000   0.00000
  38 14  H  1S          0.00000   0.00000   0.00000   0.00000   0.00000
                           6         7         8         9        10
   6 2   C  1S          2.07513
   7        2S         -0.05471   0.79195
   8        2PX         0.00000   0.00000   0.59039
   9        2PY         0.00000   0.00000   0.00000   0.63245
  10        2PZ         0.00000   0.00000   0.00000   0.00000   0.78549
  11 3   C  1S          0.00000  -0.00151  -0.00442  -0.00045   0.00000
  12        2S         -0.00145   0.03470   0.09265   0.01134   0.00000
  13        2PX        -0.00428   0.08998   0.12113   0.02291   0.00000
  14        2PY        -0.00039   0.00784   0.01634  -0.00630   0.00000
  15        2PZ         0.00000   0.00000   0.00000   0.00000   0.01917
  16 4   C  1S          0.00000   0.00004   0.00005   0.00004   0.00000
  17        2S          0.00003  -0.00336  -0.00358  -0.00329   0.00000
  18        2PX         0.00005  -0.00435  -0.00268  -0.00194   0.00000
  19        2PY         0.00003  -0.00241  -0.00354  -0.00157   0.00000
  20        2PZ         0.00000   0.00000   0.00000   0.00000  -0.00129
  21 5   H  1S          0.00015  -0.00868  -0.00258  -0.01370   0.00000
  22 6   H  1S          0.00019  -0.01071  -0.01461  -0.00010   0.00000
  23 7   H  1S         -0.00647   0.13693   0.00404   0.25852   0.00000
  24 8   H  1S          0.00000   0.00055   0.00075   0.00027   0.00000
  25 9   H  1S          0.00002  -0.00176  -0.00102  -0.00142   0.00000
  26 10  O  1S          0.00000   0.00005   0.00007   0.00001   0.00000
  27        2S          0.00002  -0.00492  -0.00740  -0.00050   0.00000
  28        2PX         0.00003  -0.00542  -0.00619   0.00018   0.00000
  29        2PY         0.00000  -0.00001  -0.00088   0.00005   0.00000
  30        2PZ         0.00000   0.00000   0.00000   0.00000  -0.00076
  31 11  C  1S          0.00000   0.00000   0.00000   0.00000   0.00000
  32        2S          0.00000   0.00024   0.00040   0.00000   0.00000
  33        2PX         0.00000   0.00060   0.00086  -0.00001   0.00000
  34        2PY         0.00000   0.00000  -0.00001   0.00000   0.00000
  35        2PZ         0.00000   0.00000   0.00000   0.00000  -0.00001
  36 12  H  1S          0.00000  -0.00002  -0.00004   0.00000   0.00000
  37 13  H  1S          0.00000  -0.00002  -0.00001   0.00000   0.00000
  38 14  H  1S          0.00000  -0.00002  -0.00001   0.00000   0.00000
                          11        12        13        14        15
  11 3   C  1S          2.07464
  12        2S         -0.05706   0.84824
  13        2PX         0.00000   0.00000   0.60076
  14        2PY         0.00000   0.00000   0.00000   0.56166
  15        2PZ         0.00000   0.00000   0.00000   0.00000   0.75660
  16 4   C  1S          0.00000  -0.00329  -0.00097  -0.00778   0.00000
  17        2S         -0.00314   0.04630   0.01266   0.09926   0.00000
  18        2PX        -0.00078   0.01035  -0.00359   0.02244   0.00000
  19        2PY        -0.00836   0.11583   0.02574   0.10508   0.00000
  20        2PZ         0.00000   0.00000   0.00000   0.00000   0.18340
  21 5   H  1S          0.00002  -0.00184  -0.00251   0.00019   0.00000
  22 6   H  1S          0.00000   0.00064   0.00107   0.00000   0.00000
  23 7   H  1S          0.00013  -0.01123  -0.00981  -0.00572   0.00000
  24 8   H  1S          0.00015  -0.00909  -0.00675  -0.00903   0.00000
  25 9   H  1S          0.00020  -0.01171  -0.00015  -0.01247   0.00000
  26 10  O  1S          0.00000   0.00005  -0.00052  -0.00099   0.00000
  27        2S         -0.00004  -0.03003   0.00949   0.01237   0.00000
  28        2PX        -0.00099   0.02402   0.00046   0.04308   0.00000
  29        2PY        -0.00268   0.07545   0.07502   0.05853   0.00000
  30        2PZ         0.00000   0.00000   0.00000   0.00000   0.02354
  31 11  C  1S          0.00000   0.00004   0.00008   0.00002   0.00000
  32        2S          0.00005  -0.00417  -0.00711  -0.00131   0.00000
  33        2PX         0.00010  -0.00737  -0.00940  -0.00434   0.00000
  34        2PY         0.00001  -0.00146  -0.00063   0.00002   0.00000
  35        2PZ         0.00000   0.00000   0.00000   0.00000  -0.00151
  36 12  H  1S         -0.00001   0.00106   0.00106   0.00066   0.00000
  37 13  H  1S          0.00001  -0.00126  -0.00142  -0.00007  -0.00048
  38 14  H  1S          0.00001  -0.00126  -0.00142  -0.00007  -0.00048
                          16        17        18        19        20
  16 4   C  1S          2.07360
  17        2S         -0.05230   0.75061
  18        2PX         0.00000   0.00000   0.62262
  19        2PY         0.00000   0.00000   0.00000   0.58374
  20        2PZ         0.00000   0.00000   0.00000   0.00000   0.93518
  21 5   H  1S          0.00000  -0.00032  -0.00029  -0.00006   0.00000
  22 6   H  1S          0.00000   0.00001   0.00002  -0.00002   0.00000
  23 7   H  1S          0.00000   0.00050   0.00021   0.00061   0.00000
  24 8   H  1S         -0.00688   0.14396   0.24402   0.01572   0.00000
  25 9   H  1S         -0.00690   0.14326   0.11757   0.14239   0.00000
  26 10  O  1S          0.00000   0.00000   0.00000   0.00001   0.00000
  27        2S          0.00000   0.00109  -0.00053  -0.00024   0.00000
  28        2PX         0.00000   0.00021   0.00018   0.00006   0.00000
  29        2PY         0.00003  -0.00559  -0.00004  -0.00948   0.00000
  30        2PZ         0.00000   0.00000   0.00000   0.00000  -0.00404
  31 11  C  1S          0.00000   0.00001   0.00001   0.00001   0.00000
  32        2S          0.00001  -0.00166  -0.00059  -0.00113   0.00000
  33        2PX         0.00001  -0.00108   0.00052  -0.00125   0.00000
  34        2PY         0.00001  -0.00117  -0.00125  -0.00006   0.00000
  35        2PZ         0.00000   0.00000   0.00000   0.00000  -0.00042
  36 12  H  1S          0.00000   0.00006   0.00008  -0.00003   0.00000
  37 13  H  1S          0.00001  -0.00040  -0.00078   0.00022   0.00072
  38 14  H  1S          0.00001  -0.00040  -0.00078   0.00022   0.00072
                          21        22        23        24        25
  21 5   H  1S          0.59055
  22 6   H  1S         -0.02397   0.58874
  23 7   H  1S          0.00246  -0.00583   0.58849
  24 8   H  1S         -0.00003   0.00000  -0.00008   0.59309
  25 9   H  1S         -0.00028  -0.00002   0.00009  -0.02253   0.58979
  26 10  O  1S          0.00000   0.00000   0.00001   0.00000   0.00000
  27        2S          0.00000  -0.00001  -0.00068  -0.00040   0.00010
  28        2PX         0.00001  -0.00001  -0.00087   0.00007   0.00004
  29        2PY         0.00000   0.00000   0.00030  -0.00135   0.00059
  30        2PZ         0.00000   0.00000   0.00000   0.00000   0.00000
  31 11  C  1S          0.00000   0.00000   0.00000   0.00002   0.00000
  32        2S          0.00000   0.00000   0.00002  -0.00128   0.00006
  33        2PX         0.00000   0.00000   0.00005   0.00054  -0.00003
  34        2PY         0.00000   0.00000   0.00000  -0.00136   0.00007
  35        2PZ         0.00000   0.00000   0.00000   0.00000   0.00000
  36 12  H  1S          0.00000   0.00000  -0.00001   0.00003   0.00000
  37 13  H  1S          0.00000   0.00000   0.00000  -0.00111   0.00002
  38 14  H  1S          0.00000   0.00000   0.00000  -0.00111   0.00002
                          26        27        28        29        30
  26 10  O  1S          2.10301
  27        2S         -0.10194   1.95312
  28        2PX         0.00000   0.00000   0.83068
  29        2PY         0.00000   0.00000   0.00000   1.23270
  30        2PZ         0.00000   0.00000   0.00000   0.00000   1.86964
  31 11  C  1S          0.00000   0.00007  -0.00286  -0.00019   0.00000
  32        2S          0.00006  -0.02829   0.08409   0.00597   0.00000
  33        2PX        -0.00127   0.02193   0.15908   0.01524   0.00000
  34        2PY        -0.00003  -0.00029   0.00559  -0.00070   0.00000
  35        2PZ         0.00000   0.00000   0.00000   0.00000   0.00838
  36 12  H  1S          0.00012  -0.01063  -0.00591  -0.00267   0.00000
  37 13  H  1S          0.00001  -0.00006  -0.00577  -0.00271  -0.00602
  38 14  H  1S          0.00001  -0.00006  -0.00577  -0.00271  -0.00602
                          31        32        33        34        35
  31 11  C  1S          2.07076
  32        2S         -0.05556   0.84693
  33        2PX         0.00000   0.00000   0.55161
  34        2PY         0.00000   0.00000   0.00000   0.67773
  35        2PZ         0.00000   0.00000   0.00000   0.00000   0.66784
  36 12  H  1S         -0.00565   0.11082   0.05190   0.22510   0.00000
  37 13  H  1S         -0.00562   0.11202   0.01837   0.07112   0.18264
  38 14  H  1S         -0.00562   0.11202   0.01837   0.07112   0.18264
                          36        37        38
  36 12  H  1S          0.59957
  37 13  H  1S         -0.02177   0.61909
  38 14  H  1S         -0.02177  -0.02494   0.61909
     Gross orbital populations:
                           1
   1 1   C  1S          1.99582
   2        2S          1.13829
   3        2PX         0.99530
   4        2PY         1.00024
   5        2PZ         1.00060
   6 2   C  1S          1.99581
   7        2S          1.13041
   8        2PX         0.93973
   9        2PY         0.99809
  10        2PZ         0.99670
  11 3   C  1S          1.99599
  12        2S          1.11068
  13        2PX         0.89832
  14        2PY         0.87902
  15        2PZ         0.97907
  16 4   C  1S          1.99569
  17        2S          1.12065
  18        2PX         0.99887
  19        2PY         0.96142
  20        2PZ         1.11282
  21 5   H  1S          0.93297
  22 6   H  1S          0.93073
  23 7   H  1S          0.92443
  24 8   H  1S          0.93820
  25 9   H  1S          0.93482
  26 10  O  1S          1.99866
  27        2S          1.81239
  28        2PX         1.11422
  29        2PY         1.43492
  30        2PZ         1.88470
  31 11  C  1S          1.99550
  32        2S          1.17157
  33        2PX         0.81437
  34        2PY         1.04381
  35        2PZ         1.03957
  36 12  H  1S          0.92196
  37 13  H  1S          0.93182
  38 14  H  1S          0.93182
          Condensed to atoms (all electrons):
               1          2          3          4          5          6
     1  C    4.787753   0.608599  -0.023274  -0.004206   0.393863   0.395324
     2  C    0.608599   4.765998   0.397259  -0.027779  -0.024806  -0.025226
     3  C   -0.023274   0.397259   4.727774   0.593158  -0.004147   0.001705
     4  C   -0.004206  -0.027779   0.593158   4.861150  -0.000671   0.000014
     5  H    0.393863  -0.024806  -0.004147  -0.000671   0.590549  -0.023967
     6  H    0.395324  -0.025226   0.001705   0.000014  -0.023967   0.588736
     7  H   -0.027221   0.393026  -0.026634   0.001321   0.002460  -0.005826
     8  H    0.000041   0.001565  -0.024734   0.396832  -0.000035   0.000002
     9  H   -0.001077  -0.004188  -0.024133   0.396321  -0.000281  -0.000019
    10  O    0.000479  -0.025662   0.286774  -0.018323   0.000010  -0.000019
    11  C   -0.000040   0.002071  -0.037009  -0.008036  -0.000002   0.000002
    12  H    0.000002  -0.000064   0.002770   0.000119   0.000000   0.000000
    13  H    0.000001  -0.000020  -0.003216  -0.000224   0.000000   0.000000
    14  H    0.000001  -0.000020  -0.003216  -0.000224   0.000000   0.000000
               7          8          9         10         11         12
     1  C   -0.027221   0.000041  -0.001077   0.000479  -0.000040   0.000002
     2  C    0.393026   0.001565  -0.004188  -0.025662   0.002071  -0.000064
     3  C   -0.026634  -0.024734  -0.024133   0.286774  -0.037009   0.002770
     4  C    0.001321   0.396832   0.396321  -0.018323  -0.008036   0.000119
     5  H    0.002460  -0.000035  -0.000281   0.000010  -0.000002   0.000000
     6  H   -0.005826   0.000002  -0.000019  -0.000019   0.000002   0.000000
     7  H    0.588488  -0.000076   0.000090  -0.001250   0.000065  -0.000015
     8  H   -0.000076   0.593090  -0.022534  -0.001679  -0.002088   0.000030
     9  H    0.000090  -0.022534   0.589785   0.000727   0.000099   0.000000
    10  O   -0.001250  -0.001679   0.000727   7.785267   0.266764  -0.019094
    11  C    0.000065  -0.002088   0.000099   0.266764   4.703741   0.382178
    12  H   -0.000015   0.000030   0.000000  -0.019094   0.382178   0.599570
    13  H    0.000002  -0.001107   0.000016  -0.014548   0.378533  -0.021766
    14  H    0.000002  -0.001107   0.000016  -0.014548   0.378533  -0.021766
              13         14
     1  C    0.000001   0.000001
     2  C   -0.000020  -0.000020
     3  C   -0.003216  -0.003216
     4  C   -0.000224  -0.000224
     5  H    0.000000   0.000000
     6  H    0.000000   0.000000
     7  H    0.000002   0.000002
     8  H   -0.001107  -0.001107
     9  H    0.000016   0.000016
    10  O   -0.014548  -0.014548
    11  C    0.378533   0.378533
    12  H   -0.021766  -0.021766
    13  H    0.619093  -0.024939
    14  H   -0.024939   0.619093
 Mulliken charges:
               1
     1  C   -0.130244
     2  C   -0.060752
     3  C    0.136922
     4  C   -0.189452
     5  H    0.067027
     6  H    0.069273
     7  H    0.075567
     8  H    0.061800
     9  H    0.065179
    10  O   -0.244896
    11  C   -0.064813
    12  H    0.078037
    13  H    0.068176
    14  H    0.068176
 Sum of Mulliken charges =   0.00000
 Mulliken charges with hydrogens summed into heavy atoms:
               1
     1  C    0.006056
     2  C    0.014815
     3  C    0.136922
     4  C   -0.062473
    10  O   -0.244896
    11  C    0.149576
 Electronic spatial extent (au):  <R**2>=            679.1759
 Charge=              0.0000 electrons
 Dipole moment (field-independent basis, Debye):
    X=              0.5595    Y=             -0.5678    Z=              0.0000  Tot=              0.7972
 Quadrupole moment (field-independent basis, Debye-Ang):
   XX=            -29.4981   YY=            -34.7994   ZZ=            -35.6304
   XY=              0.2915   XZ=              0.0000   YZ=              0.0000
 Traceless Quadrupole moment (field-independent basis, Debye-Ang):
   XX=              3.8112   YY=             -1.4901   ZZ=             -2.3211
   XY=              0.2915   XZ=              0.0000   YZ=              0.0000
 Octapole moment (field-independent basis, Debye-Ang**2):
  XXX=              7.4715  YYY=              3.7238  ZZZ=              0.0000  XYY=             -0.1031
  XXY=              3.8510  XXZ=              0.0000  XZZ=              3.3627  YZZ=              2.4275
  YYZ=              0.0000  XYZ=              0.0000
 Hexadecapole moment (field-independent basis, Debye-Ang**3):
 XXXX=           -579.7086 YYYY=           -196.6483 ZZZZ=            -34.2924 XXXY=            -46.6403
 XXXZ=              0.0000 YYYX=            -45.2452 YYYZ=              0.0000 ZZZX=              0.0000
 ZZZY=              0.0000 XXYY=           -127.8542 XXZZ=           -111.3779 YYZZ=            -41.7314
 XXYZ=              0.0000 YYXZ=              0.0000 ZZXY=            -17.7723
 N-N= 2.246024444009D+02 E-N=-1.077964491965D+03  KE= 2.678282332775D+02
 Symmetry A'   KE= 2.558967166779D+02
 Symmetry A"   KE= 1.193151659960D+01
 Orbital energies and kinetic energies (alpha):
                                 1                 2
   1         O               -20.553218         29.106748
   2         O               -11.251039         15.895520
   3         O               -11.240670         15.902330
   4         O               -11.187449         15.896331
   5         O               -11.176625         15.894099
   6         O               -11.148832         15.892361
   7         O                -1.324820          2.432304
   8         O                -1.031008          1.567402
   9         O                -0.947662          1.633022
  10         O                -0.904011          1.474969
  11         O                -0.777225          1.405761
  12         O                -0.674945          1.415162
  13         O                -0.640845          1.032189
  14         O                -0.596038          1.203271
  15         O                -0.595569          1.291498
  16         O                -0.569739          1.101941
  17         O                -0.521788          1.144909
  18         O                -0.497993          1.334651
  19         O                -0.453161          1.454231
  20         O                -0.444833          1.370842
  21         O                -0.411081          2.156319
  22         O                -0.347168          1.674790
  23         O                -0.265401          1.633467
  24         V                 0.250980          1.792602
  25         V                 0.413875          2.088419
  26         V                 0.520723          3.170502
  27         V                 0.581583          2.544760
  28         V                 0.616713          2.627041
  29         V                 0.666568          2.424491
  30         V                 0.668692          2.650680
  31         V                 0.688082          2.220713
  32         V                 0.711846          2.787448
  33         V                 0.725183          3.082305
  34         V                 0.774120          2.907369
  35         V                 0.860074          2.712423
  36         V                 0.940015          3.467019
  37         V                 0.980528          3.014758
  38         V                 1.106981          3.691779
 Total kinetic energy from orbitals= 2.678282332775D+02
 1\1\GINC-HPC\FOpt\RHF\STO-6G\C5H8O1\NAKANO\04-Oct-2021\0\\# hf/sto-6g
 pop=full opt\\CH2CHC-OCH3-CH2 molecule : Opt.\\0,1\C,-0.1432884069,0.,
 -0.0350693787\C,0.0105603951,0.,1.2667762754\C,1.3168318055,0.,2.01283
 95508\C,2.5079002051,0.,1.4458914844\H,0.6852305631,0.,-0.7226446939\H
 ,-1.1231542175,0.,-0.4822944985\H,-0.8529260113,0.,1.9163126479\H,3.42
 44038736,0.,2.0005177364\H,2.6017478441,0.,0.3781769973\O,1.0452832969
 ,0.,3.3824439691\C,2.2036603011,0.,4.2185908642\H,1.8426372571,0.,5.24
 44840634\H,2.8209993661,-0.8851049241,4.0659812456\H,2.8209993661,0.88
 51049241,4.0659812456\\Version=ES64L-G16RevB.01\State=1-A'\HF=-268.026
 8056\RMSD=3.695e-09\RMSF=6.551e-05\Dipole=0.3135742,0.,0.0056507\Quadr
 upole=0.5464932,-1.7256812,1.179188,0.,1.957149,0.\PG=CS [SG(C5H6O1),X
 (H2)]\\@


 THE CHYMISTS ARE A STRANGE CLASS OF MORTALS IMPELLED
 BY AN ALMOST INSANE IMPULSE TO SEEK THEIR PLEASURE
 AMONG SMOKE AND VAPOR, SOOT AND FLAME, POISONS AND
 POVERTY; YET AMONG ALL THESE EVILS I SEEM TO LIVE
 SO SWEETLY, THAT I MAY DIE IF I WOULD CHANGE PLACES
 WITH THE PERSIAN KING.
   --  JOHANN JOACHIM BECHER, 1635-1682
 ACTA LABORATORII CHYMICA MONACENSIS, 1669
 Job cpu time:       0 days  0 hours  0 minutes 11.2 seconds.
 Elapsed time:       0 days  0 hours  0 minutes 11.1 seconds.
 File lengths (MBytes):  RWF=      6 Int=      0 D2E=      0 Chk=      1 Scr=      1
 Normal termination of Gaussian 16 at Mon Oct  4 00:35:26 2021.
